ITEM: TIMESTEP
22990000
ITEM: NUMBER OF ATOMS
9000
ITEM: BOX BOUNDS pp pp pp
3.6042321388874488e-01 1.6149576785892606e+01
3.6042321388874488e-01 1.6149576785892606e+01
3.6042321388874488e-01 1.6149576785892606e+01
ITEM: ATOMS id mol x y z c_pei v_hi ix iy iz
23 1 15.6549 12.4396 13.7721 6.34012 11.0012 -1 -1 0
24 1 15.477 12.752 13.6205 -8.41753 -3.75648 -1 -1 0
25 1 15.5072 13.0489 13.865 -6.02822 -1.36717 -1 -1 0
8480 57 13.0884 6.91169 3.5822 2.00706 6.66811 0 1 1
3627 25 14.0809 4.07627 5.71906 -1.94931 2.71174 -1 1 1
22 1 15.6341 12.1034 13.5398 7.53714 12.1982 -1 -1 0
910 7 3.97866 3.01328 3.29989 1.87795 6.539 1 -1 -1
914 7 3.27205 3.64439 2.63617 -3.73814 0.922912 1 -1 -1
26 1 15.4223 13.3858 13.6799 1.36828 6.02933 -1 -1 0
7287 49 12.4818 6.60213 15.5026 -4.29377 0.367275 -1 1 0
1140 8 5.10194 15.8878 5.34214 6.66499 11.326 1 0 -1
7256 49 2.45207 2.80765 2.26731 1.271 5.93205 0 1 1
3156 22 1.04563 3.441 7.22449 -2.76068 1.90037 0 0 0
3155 22 0.997485 3.48885 6.84783 -0.660142 4.00091 0 0 0
21 1 15.8086 11.8 13.735 0.0416256 4.70267 -1 -1 0
7258 49 2.0689 3.31944 2.16765 -9.40663 -4.74558 0 1 1
7201 49 6.64633 0.985961 10.2913 -15.0609 -10.3999 0 1 1
7202 49 6.94581 1.23719 10.2912 -5.95791 -1.29686 0 1 1
3629 25 13.4409 4.16296 5.60518 10.1432 14.8042 -1 1 1
7265 49 1.00339 5.08054 2.57902 -5.74768 -1.08663 0 1 1
748 5 14.6742 12.3688 3.68895 -7.74337 -3.08232 0 0 2
7263 49 1.3612 4.549 2.71479 0.0143053 4.67535 0 1 1
7259 49 1.99971 3.69536 2.25432 -5.53082 -0.869769 0 1 1
7260 49 1.94441 3.74172 2.64463 -5.32514 -0.664095 0 1 1
7295 49 10.9956 5.04472 14.0891 4.7031 9.36415 -1 1 0
7261 49 1.8353 4.0989 2.75995 10.1839 14.845 0 1 1
7264 49 1.22354 4.78947 2.44829 -0.0328364 4.62821 0 1 1
7262 49 1.51532 4.20491 2.59129 8.56873 13.2298 0 1 1
6988 47 14.1357 6.12022 13.4848 2.58513 7.24617 -1 0 0
3605 25 0.380192 0.970573 9.87939 9.65908 14.3201 0 1 1
3621 25 15.4068 3.57546 6.59612 0.803006 5.46406 -1 1 1
7245 49 5.17097 0.849056 2.87 -0.209556 4.45149 0 1 1
909 7 3.91721 2.63023 3.40089 -2.31964 2.34141 1 -1 -1
907 7 3.99893 2.65068 4.02869 2.32506 6.98611 1 -1 -1
906 7 4.22669 2.5666 4.35352 1.22227 5.88332 1 -1 -1
908 7 4.14452 2.5114 3.69627 -0.791187 3.86986 1 -1 -1
20 1 0.416527 11.8093 13.7526 -3.42967 1.23138 0 -1 0
3620 25 15.3118 3.53062 6.9664 2.1364 6.79745 -1 1 1
3624 25 15.0552 4.2091 5.8731 5.67147 10.3325 -1 1 1
3623 25 15.3052 3.93201 6.01917 2.99391 7.65496 -1 1 1
905 7 4.07583 2.65296 4.70788 6.71315 11.3742 1 -1 -1
904 7 4.35855 2.62881 4.96389 13.0957 17.7567 1 -1 -1
2785 19 9.20537 6.53308 14.4712 -6.80364 -2.14259 1 1 0
3622 25 15.1958 3.83715 6.38225 -1.98951 2.67154 -1 1 1
7353 50 12.1155 13.0427 7.81324 12.4301 17.0912 0 1 0
7354 50 12.2067 12.7682 7.55679 7.52801 12.1891 0 1 0
3619 25 14.9762 3.34996 6.97901 1.30844 5.96949 -1 1 1
3618 25 14.8963 3.18574 7.32528 -4.22989 0.431164 -1 1 1
7352 50 12.449 13.1969 7.96914 0.00528551 4.66633 0 1 0
3617 25 14.5703 2.97681 7.38924 -0.831175 3.82987 -1 1 1
749 5 14.987 12.6174 3.6909 -6.14446 -1.48341 0 0 2
7267 49 0.666042 5.61175 2.50151 -1.97219 2.68886 0 1 1
1141 8 4.88327 15.6049 5.17553 3.66723 8.32828 1 0 -1
7266 49 0.881376 5.33753 2.31193 -6.07937 -1.41832 0 1 1
3609 25 15.4063 1.71111 9.13137 -11.1586 -6.49752 -1 1 1
3608 25 15.4225 1.48961 9.44538 2.55287 7.21392 -1 1 1
7427 50 10.8131 2.12681 8.0878 -5.81418 -1.15313 0 1 0
7269 49 0.446601 6.24164 2.45714 -2.92531 1.73574 0 1 1
7243 49 5.05684 0.599184 3.41988 6.69247 11.3535 0 1 1
7268 49 0.626596 5.93379 2.28047 -3.77426 0.88679 0 1 1
1142 8 4.51311 15.7113 5.17345 -0.770805 3.89024 1 0 -1
5550 37 3.91117 7.59727 13.8796 -9.65187 -4.99082 1 0 0
7355 50 11.8871 12.7316 7.32295 6.8713 11.5324 0 1 0
7244 49 5.20925 0.906993 3.25573 6.414 11.075 0 1 1
3607 25 15.7857 1.3566 9.52154 -3.38458 1.27647 -1 1 1
3610 25 15.0491 1.81065 9.00304 -4.96581 -0.304756 -1 1 1
2789 19 10.0196 7.17521 15.2645 -6.52766 -1.86661 1 1 0
2855 20 10.7192 15.3664 6.93798 10.2306 14.8916 0 0 1
7424 50 9.84488 2.16473 8.26302 6.85945 11.5205 0 1 0
1332 9 13.428 8.62406 1.94683 -4.41067 0.25038 -2 0 1
6984 47 14.585 6.05541 14.6811 -4.64544 0.0156083 -1 0 0
1331 9 13.5173 8.76096 2.29442 -4.76049 -0.0994404 -2 0 1
1139 8 5.48065 15.7859 5.30752 6.78464 11.4457 1 0 -1
1136 8 6.40296 0.402365 5.16754 -3.38335 1.2777 1 1 -1
1137 8 6.14263 15.9146 5.22089 -2.5226 2.13845 1 0 -1
6983 47 14.5517 5.97233 15.0718 -1.63351 3.02754 -1 0 0
3153 22 0.680173 3.88318 6.39855 9.92198 14.583 0 0 0
3152 22 0.401147 4.11263 6.30039 4.60898 9.27002 0 0 0
3154 22 0.705377 3.75959 6.77918 0.918906 5.57995 0 0 0
1134 8 7.00215 0.611991 5.15115 -6.56873 -1.90768 1 1 -1
7420 50 8.8801 2.45319 7.66832 -3.03038 1.63067 0 1 0
1138 8 5.78054 16.0449 5.25972 5.62144 10.2825 1 0 -1
7423 50 9.50437 2.16139 8.0425 1.40911 6.07016 0 1 0
1135 8 6.77043 16.106 5.25653 -1.46845 3.1926 1 0 -1
7428 50 11.1258 2.00904 8.30342 -1.71405 2.947 0 1 0
7422 50 9.2007 2.33511 8.21524 -4.19175 0.469299 0 1 0
3628 25 13.8013 4.32312 5.64755 2.0573 6.71835 -1 1 1
7421 50 8.87453 2.2825 8.01716 -2.33423 2.32682 0 1 0
7257 49 2.41569 3.18507 2.28945 1.75343 6.41448 0 1 1
1126 8 7.29735 1.89861 3.84242 5.04981 9.71086 1 1 -1
7286 49 12.5786 6.76677 15.8515 11.0297 15.6907 -1 1 0
1127 8 7.31705 2.23472 4.06226 3.33844 7.99949 1 1 -1
7418 50 8.53502 2.71864 7.18148 15.0297 19.6907 0 1 0
1129 8 7.20073 1.90094 4.63751 2.62142 7.28247 1 1 -1
1131 8 7.03719 1.63851 5.23361 5.79425 10.4553 1 1 -1
1130 8 7.24679 1.91614 5.03723 -0.868093 3.79296 1 1 -1
1128 8 7.43381 2.1473 4.43016 -2.4728 2.18825 1 1 -1
1133 8 6.8926 0.958736 5.27828 -0.554647 4.1064 1 1 -1
1132 8 7.12726 1.25418 5.14777 1.04996 5.71101 1 1 -1
750 5 15.1992 12.6008 4.02677 -19.1 -14.439 0 0 2
4567 31 12.6176 2.3902 3.30284 1.66083 6.32188 0 1 0
1125 8 7.23174 1.96009 3.46216 1.14023 5.80128 1 1 -1
7242 49 5.12609 0.585605 3.80371 2.33401 6.99505 0 1 1
3625 25 14.7288 4.03066 5.79429 1.53782 6.19887 -1 1 1
3626 25 14.4231 4.27552 5.74603 -7.43943 -2.77838 -1 1 1
2788 19 9.99933 6.96241 14.938 -7.26193 -2.60088 1 1 0
2787 19 9.64287 6.94385 14.7699 -4.67728 -0.016235 1 1 0
2786 19 9.58014 6.62456 14.5386 -3.63028 1.03077 1 1 0
7290 49 11.7895 6.0635 15.1143 -5.87925 -1.2182 -1 1 0
7241 49 5.02509 0.902769 3.98612 -1.41126 3.24979 0 1 1
3612 25 14.691 2.14381 8.58911 -5.32731 -0.666256 -1 1 1
7288 49 12.1732 6.37791 15.4983 -1.68068 2.98037 -1 1 0
7293 49 11.3568 5.49797 14.4067 -9.10118 -4.44013 -1 1 0
7294 49 11.1657 5.15552 14.4239 -3.96702 0.694027 -1 1 0
7289 49 12.1008 6.2928 15.1238 -3.87815 0.782898 -1 1 0
911 7 3.74956 3.1106 3.0118 -2.0376 2.62345 1 -1 -1
912 7 3.84291 3.46488 2.87792 -2.67019 1.99086 1 -1 -1
1330 9 13.7754 9.04577 2.26104 -6.01644 -1.35539 -2 0 1
3614 25 14.3202 2.35984 8.09919 -0.140672 4.52038 -1 1 1
3616 25 14.5855 2.7792 7.71075 6.61865 11.2797 -1 1 1
3613 25 14.6745 2.28634 8.22371 -4.32047 0.340577 -1 1 1
3611 25 15.0634 2.02137 8.68627 0.23091 4.89196 -1 1 1
3615 25 14.2982 2.50309 7.74148 -1.35145 3.3096 -1 1 1
7292 49 11.4746 5.61028 14.7591 -9.73074 -5.06969 -1 1 0
7291 49 11.6859 5.93954 14.7648 -8.26027 -3.59922 -1 1 0
3151 22 0.483435 4.26688 5.94418 -16.1032 -11.4422 0 0 0
7419 50 8.53954 2.45203 7.47934 2.2126 6.87365 0 1 0
7246 49 4.80673 0.869083 2.73785 -0.00670591 4.65434 0 1 1
7237 49 5.07146 1.86258 4.67469 -9.3058 -4.64475 0 1 1
6986 47 14.328 5.98693 14.0815 -0.399994 4.26105 -1 0 0
8547 57 13.364 5.41638 8.7656 -0.410035 4.25101 0 1 0
770 6 11.0888 13.244 8.28777 8.25348 12.9145 1 -1 0
8546 57 13.5937 5.44552 9.06683 -4.62909 0.0319578 0 1 0
784 6 7.74727 13.647 7.25201 -1.73499 2.92606 1 -1 0
8548 57 13.2289 5.74049 8.61323 -4.82388 -0.162833 0 1 0
8545 57 13.7026 5.08967 9.17971 -4.37479 0.286263 0 1 0
2857 20 11.0434 15.1824 7.48779 5.69659 10.3576 0 0 1
8549 57 12.9613 5.7096 8.33511 -8.98943 -4.32838 0 1 0
769 6 11.3862 13.4477 8.12525 0.0434339 4.70448 1 -1 0
8550 57 12.9193 6.05208 8.14289 -16.1716 -11.5106 0 1 0
2858 20 11.1878 14.8555 7.62522 9.18465 13.8457 0 0 1
2860 20 10.7686 14.6507 8.07561 3.46151 8.12256 0 0 1
2625 18 3.83962 1.56838 6.28261 5.5715 10.2326 1 0 1
2626 18 3.49809 1.73681 6.19919 3.95921 8.62026 1 0 1
767 6 11.3381 13.9207 8.58243 -4.30885 0.352203 1 -1 0
2859 20 11.1259 14.7705 8.00419 8.43104 13.0921 0 0 1
1213 9 1.4159 2.69222 6.12857 0.193914 4.85496 -1 0 1
7296 49 10.6946 4.79804 14.1658 16.6488 21.3098 -1 1 0
205 2 5.68012 9.71186 1.041 -0.556361 4.10469 0 0 0
2663 18 15.5955 6.57635 4.43448 2.97385 7.6349 0 0 1
2637 18 0.414725 1.4189 4.52487 1.2858 5.94685 1 0 1
197 2 3.5582 10.3366 0.854186 6.08665 10.7477 0 0 0
781 6 8.70589 13.4581 7.13755 3.93364 8.59469 1 -1 0
2662 18 15.2621 6.6271 4.24615 7.09698 11.758 0 0 1
1159 8 0.584825 3.12235 4.60719 3.6008 8.26185 1 1 -1
1163 8 15.6581 4.01524 4.90529 -6.45058 -1.78953 0 1 -1
1162 8 15.9104 3.72048 4.89444 -4.20827 0.452781 0 1 -1
1165 8 15.5573 4.59673 5.2055 -0.977827 3.68322 0 1 -1
1160 8 16.0058 3.0918 4.72875 -5.39227 -0.731225 0 1 -1
1161 8 15.7958 3.4196 4.677 -8.54085 -3.8798 0 1 -1
1164 8 15.8154 4.32919 5.08682 -1.35696 3.30409 0 1 -1
1146 8 3.73671 0.914017 4.86123 6.88267 11.5437 1 1 -1
1166 8 15.7513 4.88692 5.38086 -0.236614 4.42443 0 1 -1
2627 18 3.28423 1.47639 5.98979 -2.04858 2.61247 1 0 1
1167 8 15.9 5.14502 5.13857 2.15236 6.81341 0 1 -1
1144 8 4.11275 0.427863 4.994 -0.495101 4.16595 1 1 -1
1147 8 3.64327 1.24741 4.70251 6.62612 11.2872 1 1 -1
1145 8 4.11298 0.794129 4.86271 -1.60788 3.05317 1 1 -1
1150 8 3.16728 1.84824 4.80852 -2.12544 2.53561 1 1 -1
1215 9 0.913907 3.01484 5.86496 -5.49326 -0.832209 -1 0 1
1143 8 4.46193 16.0684 5.02375 -1.50995 3.1511 1 0 -1
1148 8 3.75909 1.58112 4.86613 -0.441726 4.21932 1 1 -1
8544 57 13.9509 5.06513 9.46391 -5.18687 -0.525817 0 1 0
8543 57 14.0479 4.69917 9.57264 -7.76552 -3.10447 0 1 0
2047 14 1.97762 6.71359 12.4525 6.94719 11.6082 0 0 0
2623 18 4.40985 1.74268 6.44659 16.2622 20.9233 1 0 1
5381 36 15.2801 1.67679 12.6783 11.7935 16.4546 0 1 0
8542 57 14.2687 4.68752 9.90726 1.19743 5.85848 0 1 0
2621 18 4.82878 1.38963 6.76975 10.7277 15.3888 1 0 1
5380 36 15.1661 1.34313 12.5441 15.3118 19.9728 0 1 0
2624 18 4.04926 1.84822 6.45825 15.738 20.3991 1 0 1
2622 18 4.46648 1.49912 6.75551 12.0305 16.6916 1 0 1
5377 36 15.1873 16.1231 12.6775 3.20094 7.86199 0 0 0
5378 36 15.0536 0.683543 12.5502 4.73629 9.39734 0 1 0
5379 36 15.1976 0.99698 12.7427 2.33162 6.99267 0 1 0
5376 36 15.0326 15.8175 12.4954 3.8768 8.53785 0 0 0
7297 49 10.6428 4.6078 13.8129 12.4839 17.1449 -1 1 0
7299 49 10.236 4.18906 13.5079 -0.0754968 4.58555 -1 1 0
7298 49 10.2959 4.40776 13.8368 3.10471 7.76576 -1 1 0
204 2 5.43147 9.41003 1.02198 -2.6448 2.01624 0 0 0
816 6 4.51888 2.22471 10.3135 -6.10874 -1.44769 1 0 0
1174 8 15.7939 6.82769 6.16608 1.20603 5.86708 0 1 -1
2619 18 5.47513 1.55219 6.71857 8.27673 12.9378 1 0 1
2620 18 5.11165 1.63957 6.84429 4.75501 9.41606 1 0 1
2618 18 5.65856 1.27406 6.94771 5.58297 10.244 1 0 1
1171 8 15.717 6.2363 5.34803 -2.80578 1.85527 0 1 -1
1169 8 16.0966 5.77055 5.06435 -1.18476 3.47629 0 1 -1
1168 8 15.9575 5.4912 5.28844 3.57747 8.23852 0 1 -1
1170 8 16.0818 6.13008 5.23599 1.18087 5.84192 0 1 -1
1172 8 15.7249 6.5564 5.58369 -2.70041 1.96063 0 1 -1
1173 8 15.805 6.49558 5.95565 2.1484 6.80945 0 1 -1
203 2 5.11599 9.51254 1.22212 2.15077 6.81182 0 0 0
2613 18 6.24189 0.759095 8.12438 3.3003 7.96135 1 0 1
2615 18 5.83418 0.898019 7.6091 -5.22976 -0.568715 1 0 1
2050 14 1.51494 7.43686 12.9744 -2.54087 2.12018 0 0 0
1175 8 15.9803 6.77955 6.50079 -3.26063 1.40042 0 1 -1
2658 18 14.3099 6.22231 4.20742 -3.6527 1.00835 0 0 1
1176 8 15.9175 6.42913 6.66898 -7.45627 -2.79522 0 1 -1
775 6 10.2457 12.592 7.28593 5.48439 10.1454 1 -1 0
773 6 10.8178 12.6978 7.51654 6.58793 11.249 1 -1 0
776 6 9.84483 12.6286 7.29331 3.1651 7.82615 1 -1 0
774 6 10.4384 12.7627 7.58755 11.2829 15.944 1 -1 0
772 6 11.0279 12.8417 7.819 9.9287 14.5897 1 -1 0
771 6 10.8349 13.0757 8.05184 12.8652 17.5262 1 -1 0
201 2 4.51807 9.82129 1.24177 -5.79532 -1.13427 0 0 0
206 2 6.01964 9.65316 0.846807 -7.37037 -2.70932 0 0 0
2051 14 1.15798 7.6043 12.9431 -5.75473 -1.09368 0 0 0
209 2 6.6762 10.2929 1.2096 -2.42629 2.23475 0 0 0
2635 18 0.896678 1.4392 4.9136 3.61317 8.27421 1 0 1
212 2 7.21345 10.7884 1.93991 -8.78038 -4.11933 0 0 0
211 2 7.0028 10.7345 1.61227 -10.4863 -5.82528 0 0 0
202 2 4.85034 9.75146 1.03666 1.36143 6.02248 0 0 0
207 2 6.26018 9.95365 0.856206 -6.33091 -1.66986 0 0 0
1149 8 3.55678 1.8992 4.74765 0.811424 5.47247 1 1 -1
208 2 6.46669 9.97728 1.19475 1.06342 5.72447 0 0 0
2632 18 1.75748 1.66546 5.36273 -9.2501 -4.58905 1 0 1
782 6 8.36498 13.6226 7.08621 7.83314 12.4942 1 -1 0
2656 18 14.02 5.65495 4.00342 3.81463 8.47568 0 0 1
196 2 3.31901 10.5867 0.670797 5.43256 10.0936 0 0 0
777 6 9.75644 12.9771 7.12777 1.06078 5.72183 1 -1 0
199 2 4.13234 9.98724 0.714322 8.23747 12.8985 0 0 0
1156 8 1.35046 2.49916 4.6099 -5.37534 -0.714291 1 1 -1
1158 8 0.743262 2.75748 4.6319 1.40085 6.0619 1 1 -1
824 6 3.38147 3.72174 8.47039 -11.1408 -6.47974 1 0 0
780 6 9.00516 13.634 6.9644 1.30614 5.96719 1 -1 0
819 6 4.21283 2.90626 9.65762 -7.46268 -2.80163 1 0 0
2614 18 6.05844 0.635121 7.79863 -6.5332 -1.87215 1 0 1
2628 18 2.93498 1.6478 5.93671 -2.29683 2.36422 1 0 1
2629 18 2.67357 1.46601 5.72328 -0.359711 4.30134 1 0 1
2630 18 2.34021 1.67255 5.63538 -5.35396 -0.692908 1 0 1
2611 18 6.28204 16.0111 8.50847 7.45494 12.116 1 -1 1
821 6 3.88579 3.25093 9.22564 -8.64277 -3.98173 1 0 0
778 6 9.38254 13.1127 7.14269 5.97929 10.6403 1 -1 0
2048 14 1.89293 6.93056 12.7543 3.13876 7.79981 0 0 0
1157 8 1.13203 2.82068 4.59524 -0.516444 4.14461 1 1 -1
822 6 3.66868 3.27929 8.8976 -2.02943 2.63162 1 0 0
2856 20 11.0697 15.2644 7.10804 13.2191 17.8802 0 0 1
1216 9 0.548918 3.14802 5.89355 -2.39878 2.26227 -1 0 1
823 6 3.61549 3.66716 8.78818 -5.49918 -0.838126 1 0 0
2631 18 2.10168 1.47581 5.39467 -10.7942 -6.13318 1 0 1
785 6 7.43889 13.4904 7.42912 -5.04774 -0.386691 1 -1 0
2636 18 0.566965 1.61919 4.83315 2.06903 6.73008 1 0 1
198 2 3.84407 10.2289 0.602043 4.82217 9.48322 0 0 0
2661 18 14.9686 6.54927 4.48897 1.38971 6.05076 0 0 1
2660 18 14.6393 6.75144 4.41358 -0.323159 4.33789 0 0 1
8541 57 14.3205 4.324 10.077 3.55368 8.21473 0 1 0
8540 57 14.5795 4.37797 10.3722 -6.48458 -1.82354 0 1 0
8539 57 14.5722 4.07336 10.6153 -9.03305 -4.372 0 1 0
8538 57 14.839 4.08229 10.9005 -7.44157 -2.78053 0 1 0
8537 57 14.8578 3.76186 11.1295 -6.72139 -2.06035 0 1 0
5375 36 14.8931 15.8831 12.1326 6.93112 11.5922 0 0 0
210 2 6.85808 10.3721 1.55533 -6.35642 -1.69537 0 0 0
5374 36 15.144 15.96 11.837 7.58125 12.2423 0 0 0
8533 57 15.592 3.234 12.1055 -9.38658 -4.72553 0 1 0
8535 57 15.2387 3.51428 11.602 -6.94396 -2.28291 0 1 0
8532 57 15.7318 3.28505 12.4691 -6.78897 -2.12792 0 1 0
8534 57 15.383 3.5338 11.9708 -11.0777 -6.41663 0 1 0
8536 57 15.0526 3.83331 11.4635 -6.94071 -2.27966 0 1 0
8531 57 15.8738 2.95197 12.6094 -6.82863 -2.16758 0 1 0
2659 18 14.4205 6.59562 4.1362 -1.77621 2.88484 0 0 1
2634 18 1.13302 1.61638 5.15262 -0.665689 3.99536 1 0 1
2616 18 6.02978 1.2217 7.49857 -0.461593 4.19946 1 0 1
1217 9 16.079 2.86884 5.83134 -3.59694 1.06411 -2 0 1
1219 9 15.4521 2.67939 5.69963 2.68591 7.34696 -2 0 1
1214 9 1.03363 2.76787 6.14055 -2.11673 2.54432 -1 0 1
2617 18 5.79925 1.43257 7.27371 0.616795 5.27784 1 0 1
2633 18 1.48393 1.46639 5.15193 -5.76237 -1.10132 1 0 1
1220 9 15.0895 2.82357 5.61379 1.96608 6.62713 -2 0 1
634 5 1.74255 14.6907 13.6873 6.37056 11.0316 0 -1 1
633 5 2.09759 14.7233 13.85 3.91861 8.57966 0 -1 1
632 5 2.09214 14.8081 14.2269 0.121837 4.78289 0 -1 1
1888 13 1.1197 12.6646 15.6283 7.26479 11.9258 1 -1 -1
636 5 1.46109 14.8179 13.1206 -4.81779 -0.156744 0 -1 1
628 5 2.73372 15.0147 15.3518 -1.09525 3.5658 0 -1 1
898 6 14.4199 5.95605 6.94242 -2.49319 2.16786 0 0 0
2650 18 14.1076 4.58231 4.69774 -4.88511 -0.224059 0 0 1
1008 7 1.1442 4.5983 13.7144 -6.92249 -2.26144 1 -1 -2
631 5 2.41751 14.9064 14.4217 -2.94967 1.71138 0 -1 1
630 5 2.4005 14.9422 14.8129 2.08094 6.74199 0 -1 1
629 5 2.76716 14.9704 14.9595 -2.66707 1.99398 0 -1 1
635 5 1.79849 14.7677 13.3126 4.39432 9.05537 0 -1 1
2645 18 14.5867 3.25054 4.59713 5.1049 9.76595 0 0 1
2646 18 14.75 3.45354 4.88836 -5.7581 -1.09705 0 0 1
830 6 2.59609 4.90805 7.14398 -8.44649 -3.78544 1 0 0
2638 18 15.8794 1.57823 4.39155 -1.67237 2.98868 0 0 1
2644 18 14.5988 2.85227 4.6416 6.52268 11.1837 0 0 1
826 6 3.09531 4.1216 8.05263 -8.20705 -3.546 1 0 0
1893 13 1.76696 12.4401 14.4348 5.38527 10.0463 1 -1 -1
2651 18 13.8806 4.48992 4.39619 -2.07139 2.58966 0 0 1
836 6 1.66089 6.21903 6.08628 -1.0817 3.57935 1 0 0
833 6 2.27334 5.73145 6.68278 -7.6466 -2.98555 1 0 0
835 6 1.94362 6.17141 6.35519 0.325609 4.98666 1 0 0
834 6 1.97208 5.80373 6.44163 -0.430722 4.23033 1 0 0
832 6 2.28079 5.34271 6.75938 -4.2977 0.363346 1 0 0
831 6 2.53474 5.28969 7.05043 -8.1394 -3.47835 1 0 0
2647 18 14.7526 3.84463 4.86044 -4.95232 -0.291267 0 0 1
2649 18 14.4505 4.39355 4.73434 4.32441 8.98546 0 0 1
1212 9 1.48517 2.33583 6.30237 13.9565 18.6175 -1 0 1
2648 18 14.4097 4.02307 4.80112 1.40153 6.06258 0 0 1
640 5 0.507994 14.6599 12.4025 4.71281 9.37386 0 -1 1
626 5 2.63365 14.7067 15.9259 -0.741031 3.92002 0 -1 1
2652 18 13.546 4.69873 4.38037 -5.01284 -0.351788 0 0 1
6484 44 3.55986 16.0173 15.1188 11.4444 16.1054 1 -1 0
1204 9 2.77188 1.51561 8.15516 0.0252262 4.68628 -1 0 1
1203 9 3.06651 1.28624 8.22629 -3.00156 1.65949 -1 0 1
2655 18 13.8069 5.43923 3.73646 4.27416 8.93521 0 0 1
6483 44 3.42632 0.422577 15.432 -6.44562 -1.78457 1 0 0
1206 9 2.46319 1.89959 7.68889 -4.85776 -0.196709 -1 0 1
1205 9 2.79655 1.7303 7.82139 -6.66604 -2.00499 -1 0 1
1202 9 3.0255 1.09574 8.56605 -10.7043 -6.04326 -1 0 1
2653 18 13.5998 5.05229 4.21806 2.67519 7.33624 0 0 1
2657 18 14.1278 6.01779 3.92764 -3.55694 1.10411 0 0 1
2654 18 13.7702 5.06637 3.86739 -2.41678 2.24427 0 0 1
994 7 14.7446 6.90383 10.4379 8.43405 13.0951 0 -1 -2
623 5 2.6095 15.1192 0.809387 -0.200934 4.46012 0 -1 2
1005 7 0.85899 5.09308 12.89 -6.68903 -2.02798 1 -1 -2
627 5 2.66916 14.6701 15.5409 3.74632 8.40737 0 -1 1
1884 13 0.991236 13.6746 16.0742 -8.80846 -4.14741 1 -1 -1
625 5 2.94316 14.7936 0.364446 0.83916 5.50021 0 -1 2
6485 44 3.77466 0.439496 14.9018 15.0126 19.6736 1 0 0
829 6 2.77054 4.87 7.48275 -5.00221 -0.341161 1 0 0
637 5 1.26419 14.4873 13.0631 -5.30207 -0.641024 0 -1 1
2643 18 14.9513 2.67889 4.7231 6.0349 10.6959 0 0 1
2640 18 15.6111 2.16415 4.17327 0.230033 4.89108 0 0 1
2641 18 15.4155 2.28783 4.48734 -7.89821 -3.23716 0 0 1
2642 18 15.1005 2.50177 4.40624 -3.82946 0.83159 0 0 1
860 6 3.42516 1.78888 10.5697 -8.94501 -4.28396 1 0 0
1208 9 2.22507 2.24607 7.14205 -2.04226 2.61879 -1 0 1
1207 9 2.52222 2.06246 7.33384 -7.24563 -2.58458 -1 0 1
1892 13 1.54532 12.1362 14.5198 7.07549 11.7365 1 -1 -1
638 5 0.898315 14.529 12.9215 -5.1394 -0.478355 0 -1 1
8686 58 9.17058 14.1026 14.4384 5.06072 9.72177 0 0 0
996 7 15.0765 6.57266 10.8622 -7.60917 -2.94812 0 -1 -2
622 5 2.55571 15.1903 1.18295 -1.14252 3.51853 0 -1 2
2639 18 15.926 1.92723 4.22654 0.733494 5.39454 0 0 1
4640 31 10.4882 6.81942 2.08837 -2.86379 1.79726 1 1 0
1211 9 1.85715 2.22818 6.34327 13.1772 17.8382 -1 0 1
8688 58 9.56123 14.4239 14.8343 -3.68134 0.97971 0 0 0
8687 58 9.18547 14.3945 14.7199 -1.33534 3.32571 0 0 0
8685 58 8.79569 14.0317 14.3234 -4.74779 -0.0867442 0 0 0
1210 9 2.0352 2.50766 6.57386 9.12075 13.7818 -1 0 1
1209 9 2.33333 2.35695 6.77882 -1.03038 3.63067 -1 0 1
655 5 2.28973 11.6351 11.078 -6.68419 -2.02314 0 -1 1
897 6 14.7892 5.87694 7.05975 -5.10366 -0.442614 0 0 0
896 6 14.8334 5.54326 7.25763 -0.561844 4.09921 0 0 0
1004 7 0.520909 5.18791 12.692 -5.02747 -0.366418 1 -1 -2
1003 7 0.573486 5.43829 12.3984 -9.47458 -4.81353 1 -1 -2
1006 7 0.823851 4.91295 13.2354 -11.283 -6.62199 1 -1 -2
995 7 15.068 6.71497 10.4984 4.23971 8.90075 0 -1 -2
1890 13 1.29166 12.4011 15.0531 -5.65076 -0.989712 1 -1 -1
1891 13 1.48856 12.1005 14.8936 1.76799 6.42904 1 -1 -1
1887 13 1.19471 12.6875 16.004 7.5651 12.2262 1 -1 -1
1885 13 0.916823 13.2895 16.0244 -3.25197 1.40908 1 -1 -1
1007 7 1.16712 4.78776 13.3743 -8.71013 -4.04908 1 -1 -2
1002 7 16.0332 5.5383 12.2284 -6.07945 -1.4184 0 -1 -2
1001 7 16.0605 5.76914 11.9188 -4.39021 0.270836 0 -1 -2
899 6 14.3832 6.27675 6.74427 -2.94978 1.71127 0 0 0
900 6 14.5934 6.26255 6.40687 -8.62506 -3.96401 0 0 0
5311 36 3.02548 4.21443 12.5757 -2.32627 2.33478 1 1 0
5310 36 3.07471 4.06088 12.929 -6.59834 -1.93729 1 1 0
5309 36 3.41228 3.88398 12.988 0.626735 5.28778 1 1 0
657 5 2.70721 11.1794 10.8801 13.3245 17.9855 0 -1 1
1886 13 1.21391 13.0556 16.1095 7.14147 11.8025 1 -1 -1
639 5 0.879306 14.6506 12.5587 1.29189 5.95294 0 -1 1
1883 13 0.667432 13.8797 16.0225 -6.14213 -1.48108 1 -1 -1
654 5 1.99028 11.8599 10.9525 -5.72298 -1.06193 0 -1 1
1889 13 1.28474 12.3743 15.4515 5.85209 10.5131 1 -1 -1
842 6 0.799923 5.07132 6.56427 2.38415 7.0452 1 0 0
839 6 0.728813 5.88258 6.00369 6.41366 11.0747 1 0 0
841 6 0.837267 5.456 6.48804 11.8525 16.5136 1 0 0
656 5 2.42863 11.4096 10.7873 7.25485 11.9159 0 -1 1
840 6 0.715724 5.51624 6.10896 5.55319 10.2142 1 0 0
999 7 15.7753 6.11263 11.4109 -3.70568 0.955367 0 -1 -2
998 7 15.442 6.27165 11.321 -4.29707 0.363979 0 -1 -2
1000 7 15.7297 5.91449 11.7426 -3.81134 0.849707 0 -1 -2
997 7 15.4373 6.4751 10.9895 -9.34661 -4.68556 0 -1 -2
5305 36 4.36652 3.60408 13.4028 0.812469 5.47352 1 1 0
850 6 2.0209 3.70967 8.24213 -5.11254 -0.451492 1 0 0
837 6 1.31873 6.06878 6.16647 9.90802 14.5691 1 0 0
838 6 1.05953 6.02833 5.87966 3.71481 8.37586 1 0 0
843 6 0.968072 4.98559 6.88977 3.57471 8.23576 1 0 0
1201 9 3.33441 0.86083 8.61767 -19.2834 -14.6224 -1 0 1
894 6 15.0857 5.2345 7.75465 -6.08768 -1.42663 0 0 0
3220 22 15.6249 3.56709 3.75839 -0.278967 4.38208 -1 0 0
893 6 15.3756 5.20243 8.0213 -6.7483 -2.08725 0 0 0
6486 44 3.86551 16.0295 14.587 -0.691236 3.96981 1 -1 0
890 6 15.667 4.55758 8.69622 -6.82287 -2.16182 0 0 0
892 6 15.3219 4.96242 8.32124 -6.26527 -1.60422 0 0 0
891 6 15.6233 4.92392 8.55957 -3.95849 0.702562 0 0 0
895 6 15.1494 5.4941 7.46313 0.244518 4.90557 0 0 0
5308 36 3.37965 3.623 13.27 5.08187 9.74292 1 1 0
5338 36 13.484 8.60072 8.55266 -1.89635 2.7647 0 1 0
5337 36 13.8396 8.75397 8.57862 -6.56101 -1.89996 0 1 0
5301 36 5.60591 3.84747 13.724 -0.873602 3.78745 1 1 0
845 6 1.54838 4.95321 7.22354 -6.35007 -1.68902 1 0 0
846 6 1.55988 4.57408 7.32252 -1.42108 3.23997 1 0 0
844 6 1.3488 5.0545 6.90093 -6.59894 -1.93789 1 0 0
848 6 1.72467 4.1632 7.83456 0.833335 5.49438 1 0 0
5300 36 5.68732 3.49172 13.6039 1.96409 6.62514 1 1 0
849 6 2.015 4.06832 8.09524 -4.12871 0.532339 1 0 0
847 6 1.77681 4.50503 7.63443 -4.26313 0.397917 1 0 0
5302 36 5.28832 3.98235 13.5373 -1.13418 3.52687 1 1 0
5299 36 5.96678 3.30589 13.7891 9.30252 13.9636 1 1 0
5306 36 4.01231 3.71653 13.3101 3.5111 8.17214 1 1 0
5304 36 4.66344 3.87441 13.3865 -3.74132 0.919729 1 1 0
5307 36 3.72462 3.44571 13.3637 2.91507 7.57612 1 1 0
5303 36 4.99949 3.71353 13.4884 -1.66496 2.99608 1 1 0
5339 36 13.2416 8.76878 8.29407 -4.53511 0.125936 0 1 0
8690 58 9.97506 14.8456 15.1715 5.38292 10.044 0 0 0
658 5 3.01338 11.3949 10.9978 1.27201 5.93306 0 -1 1
4638 31 10.0706 6.48443 1.71569 4.57828 9.23933 1 1 0
4639 31 10.2782 6.48893 2.0362 -1.05881 3.60224 1 1 0
4641 31 10.6486 6.86247 2.43312 -1.49547 3.16558 1 1 0
825 6 3.34339 4.09917 8.35367 -10.294 -5.63291 1 0 0
5321 36 1.38388 5.96905 10.354 -6.788 -2.12695 1 1 0
5322 36 1.12202 5.95197 10.0498 -5.99904 -1.33799 1 1 0
6583 44 15.522 5.14739 13.6602 -2.93464 1.72641 0 0 0
6584 44 15.6584 5.10931 14.0226 -0.86099 3.80006 0 0 0
5323 36 1.05631 6.31145 9.89192 -3.88523 0.775816 1 1 0
5324 36 0.859313 6.28624 9.54286 4.48642 9.14747 1 1 0
1881 13 0.417772 14.4673 15.909 -4.09406 0.566985 1 -1 -1
1876 13 0.548209 15.8462 1.00972 -1.06207 3.59898 1 -1 0
1882 13 0.724802 14.2586 16.0373 -2.68419 1.97686 1 -1 -1
5319 36 1.71754 5.66104 10.8033 -2.92602 1.73503 1 1 0
5320 36 1.46555 5.61655 10.5027 -4.48214 0.178907 1 1 0
1877 13 0.421521 15.4863 0.94205 -11.6104 -6.9494 1 -1 0
1878 13 0.490572 15.3577 0.582409 -9.94914 -5.28809 1 -1 0
5316 36 2.01139 4.98447 11.4865 -2.58997 2.07108 1 1 0
6582 44 15.325 5.48413 13.5962 -3.65407 1.00698 0 0 0
1879 13 0.407789 14.9757 0.518742 -5.78454 -1.12349 1 -1 0
1880 13 0.500785 14.8455 15.9455 -3.77858 0.882467 1 -1 -1
5312 36 2.65621 4.33506 12.4659 6.15335 10.8144 1 1 0
685 5 8.06097 16.1365 15.4648 -3.71958 0.941465 0 -1 1
684 5 8.078 15.789 15.2835 -4.95113 -0.290082 0 -1 1
691 5 8.40745 1.97097 15.9512 2.77139 7.43244 0 0 1
689 5 8.52187 1.35759 0.401066 6.79958 11.4606 0 0 2
688 5 8.56479 0.996443 16.0618 0.724404 5.38545 0 0 1
692 5 8.02765 2.03998 15.9861 4.9583 9.61935 0 0 1
6403 43 7.47622 0.996373 0.506948 7.20412 11.8652 0 1 0
686 5 8.36034 0.459565 15.6962 -4.70593 -0.0448845 0 0 1
6576 44 14.5874 5.95502 12.0577 -10.0085 -5.34748 0 0 0
693 5 7.83221 2.13509 15.6696 3.67763 8.33868 0 0 1
687 5 8.30984 0.839965 15.8005 1.57175 6.2328 0 0 1
5336 36 14.0529 8.59457 8.86862 5.43395 10.095 0 1 0
8642 58 5.61401 11.8226 5.04202 2.09215 6.7532 0 0 0
690 5 8.47669 1.59507 15.8831 6.85409 11.5151 0 0 1
8651 58 4.02016 10.3182 6.4839 -9.35405 -4.693 0 0 0
8650 58 4.35364 10.462 6.33247 -7.62344 -2.96239 0 0 0
5326 36 0.619424 6.84752 9.52719 1.52346 6.18451 1 1 0
5325 36 0.851065 6.61023 9.34071 8.46556 13.1266 1 1 0
5332 36 15.2253 8.44626 9.40906 -1.55467 3.10638 0 1 0
5331 36 15.372 8.13367 9.24231 0.786556 5.4476 0 1 0
8649 58 4.34575 10.5152 5.94198 -9.44914 -4.78809 0 0 0
8648 58 4.62969 10.7402 5.78317 4.64899 9.31004 0 0 0
8652 58 4.09075 10.2259 6.86303 -0.447454 4.21359 0 0 0
8647 58 4.60857 10.7738 5.39509 2.69131 7.35236 0 0 0
5333 36 14.9975 8.64569 9.16502 0.974087 5.63514 0 1 0
5327 36 0.492516 7.15828 9.32775 -8.70493 -4.04388 1 1 0
1981 14 12.8423 10.2038 4.75883 -9.98066 -5.31961 0 0 1
5330 36 15.6187 7.89752 9.44677 2.801 7.46205 0 1 0
5328 36 16.0318 7.40702 9.51069 -9.11093 -4.44988 0 1 0
5334 36 14.6712 8.44183 9.08836 -0.520673 4.14038 0 1 0
8645 58 4.84963 11.196 4.95433 8.36143 13.0225 0 0 0
8483 57 13.3398 7.87537 3.71106 4.00586 8.66691 0 1 1
887 6 0.465507 4.20544 9.40915 0.77074 5.43179 1 0 0
8646 58 4.92282 10.9624 5.25223 6.8368 11.4978 0 0 0
5329 36 15.841 7.65076 9.26592 2.92511 7.58616 0 1 0
3276 22 3.10512 13.5182 12.2899 2.20303 6.86408 0 -1 -1
991 7 14.5875 7.73627 9.90106 4.22998 8.89102 0 -1 -2
3603 25 0.658484 0.418055 9.71025 -7.82113 -3.16008 0 1 1
694 5 7.44643 2.16294 15.708 -1.04431 3.61674 0 0 1
987 7 13.4725 7.80482 9.18348 -1.30063 3.36042 0 -1 -2
988 7 13.7132 7.99585 9.43025 -0.202078 4.45897 0 -1 -2
990 7 14.26 7.93961 9.81061 -3.63065 1.0304 0 -1 -2
989 7 14.0037 7.7674 9.55673 -3.30507 1.35598 0 -1 -2
8653 58 3.78012 10.0558 7.05097 3.82496 8.48601 0 0 0
8654 58 3.81653 9.95653 7.43287 1.57576 6.23681 0 0 0
3291 22 2.43074 16.0988 9.20692 5.41897 10.08 0 -1 -1
992 7 14.5087 7.3863 10.0819 4.81494 9.47599 0 -1 -2
8656 58 4.28888 9.73889 7.85917 10.1371 14.7981 0 0 0
8655 58 4.15682 9.76542 7.49523 4.21312 8.87417 0 0 0
8657 58 4.02007 9.54838 8.10154 8.5979 13.2589 0 0 0
5317 36 2.05953 5.2552 11.2131 -4.95221 -0.29116 1 1 0
6577 44 14.7616 5.62188 12.1655 -11.8705 -7.20942 0 0 0
1875 13 0.455 15.9861 1.35333 -2.84305 1.818 1 -1 0
1874 13 0.56105 0.567202 1.36005 -0.216661 4.44439 1 0 0
6579 44 15.0547 5.26129 12.6297 -0.880584 3.78046 0 0 0
6581 44 15.2534 5.52366 13.2104 -3.15617 1.50488 0 0 0
18 1 0.99085 11.5494 13.9403 -7.97598 -3.31493 0 -1 0
1975 14 11.6042 9.35197 3.52479 -5.39317 -0.732117 0 0 1
1870 13 0.512932 1.70408 1.95546 -6.80131 -2.14026 1 0 0
1871 13 0.57801 1.32337 2.00808 -1.38495 3.2761 1 0 0
17 1 1.18188 11.6797 13.6216 -4.96316 -0.302113 0 -1 0
19 1 0.602222 11.5011 13.9036 -5.21881 -0.557762 0 -1 0
6580 44 15.1001 5.20872 13.0235 1.49571 6.15676 0 0 0
889 6 15.9391 4.55312 8.97738 3.01226 7.67331 0 0 0
6578 44 14.8326 5.57849 12.5439 -6.67465 -2.0136 0 0 0
1872 13 0.569831 1.11574 1.65898 2.575 7.23605 1 0 0
16 1 1.5749 11.6482 13.6642 -1.43443 3.22662 0 -1 0
15 1 1.76249 11.7832 13.365 1.21193 5.87298 0 -1 0
1978 14 12.4139 9.68813 4.02335 -6.88719 -2.22614 0 0 1
5315 36 2.36183 4.86617 11.6519 1.80991 6.47096 1 1 0
8482 57 13.2838 7.48882 3.79932 4.88105 9.5421 0 1 1
1873 13 0.551151 0.733864 1.70221 -2.9773 1.68375 1 0 0
3279 22 2.93107 14.0295 11.6644 8.66802 13.3291 0 -1 -1
3282 22 2.75025 14.7907 11.01 -0.0537989 4.60725 0 -1 -1
3281 22 2.66762 14.4631 11.1999 -1.6213 3.03974 0 -1 -1
3283 22 2.44934 15.0194 10.9118 3.07502 7.73607 0 -1 -1
3284 22 2.57049 15.2588 10.6222 5.01387 9.67492 0 -1 -1
3277 22 3.24674 13.5234 11.9264 3.33231 7.99336 0 -1 -1
3280 22 2.97085 14.3531 11.4257 2.47999 7.14104 0 -1 -1
3601 25 1.02582 15.7042 9.48637 -18.0504 -13.3893 0 0 1
8643 58 5.42582 11.4686 5.05751 2.11032 6.77136 0 0 0
888 6 15.9244 4.2064 9.18385 2.72179 7.38284 0 0 0
3278 22 3.27818 13.8917 11.8191 6.94499 11.606 0 -1 -1
1974 14 11.5402 9.12237 3.21966 -3.60001 1.06104 0 0 1
1976 14 11.9965 9.40131 3.61156 -2.17356 2.48749 0 0 1
1982 14 13.2026 10.2828 4.8814 -7.56557 -2.90452 0 0 1
1977 14 12.0318 9.65166 3.90912 -8.95803 -4.29698 0 0 1
3292 22 2.19772 0.598594 9.10374 15.0039 19.665 0 0 -1
8644 58 5.05457 11.5177 4.95637 5.56664 10.2277 0 0 0
6566 44 12.3516 7.3676 10.3018 1.09555 5.7566 0 0 0
901 7 4.45397 2.01868 5.54151 -12.7581 -8.09703 1 -1 -1
993 7 14.7878 7.10869 10.1184 5.13686 9.79791 0 -1 -2
11 1 2.56455 12.4502 13.3997 5.76051 10.4216 0 -1 0
13 1 2.28603 11.9654 13.0758 1.95729 6.61834 0 -1 0
12 1 2.62157 12.1444 13.1533 6.3673 11.0284 0 -1 0
10 1 2.84371 12.6756 13.5259 2.97037 7.63142 0 -1 0
9 1 2.73337 12.9027 13.8314 -4.42146 0.239594 0 -1 0
14 1 2.14492 11.8357 13.4191 0.0202294 4.68128 0 -1 0
1869 13 0.451524 1.90042 2.29257 -2.97808 1.68297 1 0 0
683 5 7.73685 15.7346 15.1025 -6.2067 -1.54565 0 -1 1
902 7 4.5153 2.40105 5.57545 -1.14712 3.51393 1 -1 -1
6565 44 12.4932 7.70759 10.458 3.83674 8.49779 0 0 0
1983 14 13.2109 10.4426 5.24272 -2.02892 2.63213 0 0 1