ITEM: TIMESTEP
22990000
ITEM: NUMBER OF ATOMS
9000
ITEM: BOX BOUNDS pp pp pp
3.6042321388874488e-01 1.6149576785892606e+01
3.6042321388874488e-01 1.6149576785892606e+01
3.6042321388874488e-01 1.6149576785892606e+01
ITEM: ATOMS id mol x y z c_Entp
23 1 15.6549 12.4396 13.7721 -4.8759
24 1 15.477 12.752 13.6205 -4.90675
25 1 15.5072 13.0489 13.865 -4.78833
8480 57 13.0884 6.91169 3.5822 -5.0797
3627 25 14.0809 4.07627 5.71906 -7.44786
22 1 15.6341 12.1034 13.5398 -4.88214
910 7 3.97866 3.01328 3.29989 -6.83444
914 7 3.27205 3.64439 2.63617 -4.97264
26 1 15.4223 13.3858 13.6799 -6.23821
7287 49 12.4818 6.60213 15.5026 -8.94743
1140 8 5.10194 15.8878 5.34214 -3.95023
7256 49 2.45207 2.80765 2.26731 -4.77
3156 22 1.04563 3.441 7.22449 -4.4642
3155 22 0.997485 3.48885 6.84783 -5.19256
21 1 15.8086 11.8 13.735 -3.06952
7258 49 2.0689 3.31944 2.16765 -5.38384
7201 49 6.64633 0.985961 10.2913 -4.92504
7202 49 6.94581 1.23719 10.2912 -4.40409
3629 25 13.4409 4.16296 5.60518 -5.15558
7265 49 1.00339 5.08054 2.57902 -5.27739
748 5 14.6742 12.3688 3.68895 -7.63642
7263 49 1.3612 4.549 2.71479 -6.28928
7259 49 1.99971 3.69536 2.25432 -7.65593
7260 49 1.94441 3.74172 2.64463 -4.1003
7295 49 10.9956 5.04472 14.0891 -6.99554
7261 49 1.8353 4.0989 2.75995 -3.81525
7264 49 1.22354 4.78947 2.44829 -4.82842
7262 49 1.51532 4.20491 2.59129 -4.49247
6988 47 14.1357 6.12022 13.4848 -5.70099
3605 25 0.380192 0.970573 9.87939 -4.432
3621 25 15.4068 3.57546 6.59612 -6.14004
7245 49 5.17097 0.849056 2.87 -5.25454
909 7 3.91721 2.63023 3.40089 -4.60341
907 7 3.99893 2.65068 4.02869 -6.36987
906 7 4.22669 2.5666 4.35352 -6.04093
908 7 4.14452 2.5114 3.69627 -5.27251
20 1 0.416527 11.8093 13.7526 -5.49061
3620 25 15.3118 3.53062 6.9664 -4.51464
3624 25 15.0552 4.2091 5.8731 -4.83219
3623 25 15.3052 3.93201 6.01917 -3.156
905 7 4.07583 2.65296 4.70788 -4.00009
904 7 4.35855 2.62881 4.96389 -2.79383
2785 19 9.20537 6.53308 14.4712 -6.77029
3622 25 15.1958 3.83715 6.38225 -5.57681
7353 50 12.1155 13.0427 7.81324 -3.26818
7354 50 12.2067 12.7682 7.55679 -5.65419
3619 25 14.9762 3.34996 6.97901 -6.13325
3618 25 14.8963 3.18574 7.32528 -4.13768
7352 50 12.449 13.1969 7.96914 -3.95473
3617 25 14.5703 2.97681 7.38924 -6.89014
749 5 14.987 12.6174 3.6909 -5.53372
7267 49 0.666042 5.61175 2.50151 -5.91597
1141 8 4.88327 15.6049 5.17553 -4.25021
7266 49 0.881376 5.33753 2.31193 -6.05155
3609 25 15.4063 1.71111 9.13137 -7.6971
3608 25 15.4225 1.48961 9.44538 -3.37326
7427 50 10.8131 2.12681 8.0878 -7.62451
7269 49 0.446601 6.24164 2.45714 -4.34056
7243 49 5.05684 0.599184 3.41988 -5.78249
7268 49 0.626596 5.93379 2.28047 -5.34089
1142 8 4.51311 15.7113 5.17345 -5.88067
5550 37 3.91117 7.59727 13.8796 -6.42397
7355 50 11.8871 12.7316 7.32295 -4.87859
7244 49 5.20925 0.906993 3.25573 -6.00391
3607 25 15.7857 1.3566 9.52154 -5.27003
3610 25 15.0491 1.81065 9.00304 -4.5929
2789 19 10.0196 7.17521 15.2645 -7.02723
2855 20 10.7192 15.3664 6.93798 -6.12312
7424 50 9.84488 2.16473 8.26302 -6.97868
1332 9 13.428 8.62406 1.94683 -7.58251
6984 47 14.585 6.05541 14.6811 -3.47868
1331 9 13.5173 8.76096 2.29442 -3.93582
1139 8 5.48065 15.7859 5.30752 -6.84509
1136 8 6.40296 0.402365 5.16754 -6.34712
1137 8 6.14263 15.9146 5.22089 -4.31242
6983 47 14.5517 5.97233 15.0718 -3.6947
3153 22 0.680173 3.88318 6.39855 -4.34721
3152 22 0.401147 4.11263 6.30039 -5.50396
3154 22 0.705377 3.75959 6.77918 -5.72427
1134 8 7.00215 0.611991 5.15115 -6.5611
7420 50 8.8801 2.45319 7.66832 -5.18723
1138 8 5.78054 16.0449 5.25972 -9.12496
7423 50 9.50437 2.16139 8.0425 -8.18868
1135 8 6.77043 16.106 5.25653 -6.46657
7428 50 11.1258 2.00904 8.30342 -4.5551
7422 50 9.2007 2.33511 8.21524 -7.20821
3628 25 13.8013 4.32312 5.64755 -4.00149
7421 50 8.87453 2.2825 8.01716 -4.82379
7257 49 2.41569 3.18507 2.28945 -4.14567
1126 8 7.29735 1.89861 3.84242 -5.5985
7286 49 12.5786 6.76677 15.8515 -3.95421
1127 8 7.31705 2.23472 4.06226 -4.15832
7418 50 8.53502 2.71864 7.18148 -4.24009
1129 8 7.20073 1.90094 4.63751 -3.36678
1131 8 7.03719 1.63851 5.23361 -5.23223
1130 8 7.24679 1.91614 5.03723 -9.254
1128 8 7.43381 2.1473 4.43016 -4.89184
1133 8 6.8926 0.958736 5.27828 -6.13994
1132 8 7.12726 1.25418 5.14777 -5.46638
750 5 15.1992 12.6008 4.02677 -4.07404
4567 31 12.6176 2.3902 3.30284 -3.18266
1125 8 7.23174 1.96009 3.46216 -6.89302
7242 49 5.12609 0.585605 3.80371 -3.98745
3625 25 14.7288 4.03066 5.79429 -5.61492
3626 25 14.4231 4.27552 5.74603 -7.26308
2788 19 9.99933 6.96241 14.938 -9.82334
2787 19 9.64287 6.94385 14.7699 -6.72124
2786 19 9.58014 6.62456 14.5386 -7.05917
7290 49 11.7895 6.0635 15.1143 -4.71494
7241 49 5.02509 0.902769 3.98612 -4.46699
3612 25 14.691 2.14381 8.58911 -4.11831
7288 49 12.1732 6.37791 15.4983 -4.78399
7293 49 11.3568 5.49797 14.4067 -7.34397
7294 49 11.1657 5.15552 14.4239 -10.8759
7289 49 12.1008 6.2928 15.1238 -5.02628
911 7 3.74956 3.1106 3.0118 -4.07192
912 7 3.84291 3.46488 2.87792 -4.74125
1330 9 13.7754 9.04577 2.26104 -4.87778
3614 25 14.3202 2.35984 8.09919 -4.37849
3616 25 14.5855 2.7792 7.71075 -5.98501
3613 25 14.6745 2.28634 8.22371 -4.6987
3611 25 15.0634 2.02137 8.68627 -5.56415
3615 25 14.2982 2.50309 7.74148 -6.87902
7292 49 11.4746 5.61028 14.7591 -7.47846
7291 49 11.6859 5.93954 14.7648 -4.57411
3151 22 0.483435 4.26688 5.94418 -8.05043
7419 50 8.53954 2.45203 7.47934 -4.07606
7246 49 4.80673 0.869083 2.73785 -3.81215
7237 49 5.07146 1.86258 4.67469 -5.25294
6986 47 14.328 5.98693 14.0815 -7.65385
8547 57 13.364 5.41638 8.7656 -4.18602
770 6 11.0888 13.244 8.28777 -2.44705
8546 57 13.5937 5.44552 9.06683 -9.20735
784 6 7.74727 13.647 7.25201 -5.12941
8548 57 13.2289 5.74049 8.61323 -5.35612
8545 57 13.7026 5.08967 9.17971 -5.26333
2857 20 11.0434 15.1824 7.48779 -5.35074
8549 57 12.9613 5.7096 8.33511 -5.80758
769 6 11.3862 13.4477 8.12525 -3.92624
8550 57 12.9193 6.05208 8.14289 -4.31743
2858 20 11.1878 14.8555 7.62522 -4.36927
2860 20 10.7686 14.6507 8.07561 -7.08846
2625 18 3.83962 1.56838 6.28261 -4.938
2626 18 3.49809 1.73681 6.19919 -5.46174
767 6 11.3381 13.9207 8.58243 -4.05307
2859 20 11.1259 14.7705 8.00419 -5.00701
1213 9 1.4159 2.69222 6.12857 -4.0695
7296 49 10.6946 4.79804 14.1658 -4.2665
205 2 5.68012 9.71186 1.041 -6.20523
2663 18 15.5955 6.57635 4.43448 -5.61959
2637 18 0.414725 1.4189 4.52487 -4.95865
197 2 3.5582 10.3366 0.854186 -6.93488
781 6 8.70589 13.4581 7.13755 -4.50374
2662 18 15.2621 6.6271 4.24615 -3.1842
1159 8 0.584825 3.12235 4.60719 -5.36087
1163 8 15.6581 4.01524 4.90529 -4.62719
1162 8 15.9104 3.72048 4.89444 -3.93107
1165 8 15.5573 4.59673 5.2055 -9.00359
1160 8 16.0058 3.0918 4.72875 -5.33768
1161 8 15.7958 3.4196 4.677 -3.83637
1164 8 15.8154 4.32919 5.08682 -3.29317
1146 8 3.73671 0.914017 4.86123 -7.30681
1166 8 15.7513 4.88692 5.38086 -4.7789
2627 18 3.28423 1.47639 5.98979 -7.07741
1167 8 15.9 5.14502 5.13857 -7.12224
1144 8 4.11275 0.427863 4.994 -4.44435
1147 8 3.64327 1.24741 4.70251 -8.87024
1145 8 4.11298 0.794129 4.86271 -4.29927
1150 8 3.16728 1.84824 4.80852 -4.43997
1215 9 0.913907 3.01484 5.86496 -3.99541
1143 8 4.46193 16.0684 5.02375 -3.87968
1148 8 3.75909 1.58112 4.86613 -4.81156
8544 57 13.9509 5.06513 9.46391 -5.06959
8543 57 14.0479 4.69917 9.57264 -4.85553
2047 14 1.97762 6.71359 12.4525 -3.78047
2623 18 4.40985 1.74268 6.44659 -4.34508
5381 36 15.2801 1.67679 12.6783 -8.26166
8542 57 14.2687 4.68752 9.90726 -6.91605
2621 18 4.82878 1.38963 6.76975 -6.54657
5380 36 15.1661 1.34313 12.5441 -4.2638
2624 18 4.04926 1.84822 6.45825 -3.36438
2622 18 4.46648 1.49912 6.75551 -7.73658
5377 36 15.1873 16.1231 12.6775 -3.96681
5378 36 15.0536 0.683543 12.5502 -2.86684
5379 36 15.1976 0.99698 12.7427 -5.2029
5376 36 15.0326 15.8175 12.4954 -5.5826
7297 49 10.6428 4.6078 13.8129 -5.75065
7299 49 10.236 4.18906 13.5079 -5.83844
7298 49 10.2959 4.40776 13.8368 -3.7113
204 2 5.43147 9.41003 1.02198 -3.96285
816 6 4.51888 2.22471 10.3135 -8.0742
1174 8 15.7939 6.82769 6.16608 -3.17767
2619 18 5.47513 1.55219 6.71857 -5.74191
2620 18 5.11165 1.63957 6.84429 -7.008
2618 18 5.65856 1.27406 6.94771 -3.49601
1171 8 15.717 6.2363 5.34803 -4.8308
1169 8 16.0966 5.77055 5.06435 -3.87567
1168 8 15.9575 5.4912 5.28844 -3.405
1170 8 16.0818 6.13008 5.23599 -3.03157
1172 8 15.7249 6.5564 5.58369 -4.42993
1173 8 15.805 6.49558 5.95565 -3.75801
203 2 5.11599 9.51254 1.22212 -4.64147
2613 18 6.24189 0.759095 8.12438 -2.24745
2615 18 5.83418 0.898019 7.6091 -5.46597
2050 14 1.51494 7.43686 12.9744 -4.94683
1175 8 15.9803 6.77955 6.50079 -5.09672
2658 18 14.3099 6.22231 4.20742 -4.55386
1176 8 15.9175 6.42913 6.66898 -6.13191
775 6 10.2457 12.592 7.28593 -6.02064
773 6 10.8178 12.6978 7.51654 -4.3571
776 6 9.84483 12.6286 7.29331 -4.80823
774 6 10.4384 12.7627 7.58755 -3.44389
772 6 11.0279 12.8417 7.819 -4.98069
771 6 10.8349 13.0757 8.05184 -3.52998
201 2 4.51807 9.82129 1.24177 -5.69744
206 2 6.01964 9.65316 0.846807 -6.88585
2051 14 1.15798 7.6043 12.9431 -4.83624
209 2 6.6762 10.2929 1.2096 -11.0551
2635 18 0.896678 1.4392 4.9136 -4.37849
212 2 7.21345 10.7884 1.93991 -5.62068
211 2 7.0028 10.7345 1.61227 -10.1014
202 2 4.85034 9.75146 1.03666 -4.7454
207 2 6.26018 9.95365 0.856206 -7.31564
1149 8 3.55678 1.8992 4.74765 -3.89074
208 2 6.46669 9.97728 1.19475 -5.88223
2632 18 1.75748 1.66546 5.36273 -8.32935
782 6 8.36498 13.6226 7.08621 -7.30831
2656 18 14.02 5.65495 4.00342 -4.49083
196 2 3.31901 10.5867 0.670797 -10.1569
777 6 9.75644 12.9771 7.12777 -3.34232
199 2 4.13234 9.98724 0.714322 -3.49452
1156 8 1.35046 2.49916 4.6099 -4.04374
1158 8 0.743262 2.75748 4.6319 -7.6922
824 6 3.38147 3.72174 8.47039 -6.65752
780 6 9.00516 13.634 6.9644 -4.08489
819 6 4.21283 2.90626 9.65762 -7.07232
2614 18 6.05844 0.635121 7.79863 -5.8069
2628 18 2.93498 1.6478 5.93671 -6.56826
2629 18 2.67357 1.46601 5.72328 -4.20551
2630 18 2.34021 1.67255 5.63538 -4.41897
2611 18 6.28204 16.0111 8.50847 -2.5726
821 6 3.88579 3.25093 9.22564 -7.2878
778 6 9.38254 13.1127 7.14269 -2.55472
2048 14 1.89293 6.93056 12.7543 -5.66515
1157 8 1.13203 2.82068 4.59524 -4.31934
822 6 3.66868 3.27929 8.8976 -7.47828
2856 20 11.0697 15.2644 7.10804 -3.9172
1216 9 0.548918 3.14802 5.89355 -3.84716
823 6 3.61549 3.66716 8.78818 -7.646
2631 18 2.10168 1.47581 5.39467 -4.83372
785 6 7.43889 13.4904 7.42912 -3.01406
2636 18 0.566965 1.61919 4.83315 -3.89891
198 2 3.84407 10.2289 0.602043 -3.28425
2661 18 14.9686 6.54927 4.48897 -3.60945
2660 18 14.6393 6.75144 4.41358 -3.22647
8541 57 14.3205 4.324 10.077 -3.76522
8540 57 14.5795 4.37797 10.3722 -6.70331
8539 57 14.5722 4.07336 10.6153 -3.88881
8538 57 14.839 4.08229 10.9005 -6.81315
8537 57 14.8578 3.76186 11.1295 -8.18686
5375 36 14.8931 15.8831 12.1326 -5.54358
210 2 6.85808 10.3721 1.55533 -4.75745
5374 36 15.144 15.96 11.837 -3.99314
8533 57 15.592 3.234 12.1055 -5.12999
8535 57 15.2387 3.51428 11.602 -6.95011
8532 57 15.7318 3.28505 12.4691 -6.57424
8534 57 15.383 3.5338 11.9708 -5.17192
8536 57 15.0526 3.83331 11.4635 -7.22151
8531 57 15.8738 2.95197 12.6094 -5.22858
2659 18 14.4205 6.59562 4.1362 -5.11323
2634 18 1.13302 1.61638 5.15262 -6.33657
2616 18 6.02978 1.2217 7.49857 -3.38305
1217 9 16.079 2.86884 5.83134 -3.83563
1219 9 15.4521 2.67939 5.69963 -3.91594
1214 9 1.03363 2.76787 6.14055 -3.45346
2617 18 5.79925 1.43257 7.27371 -5.32545
2633 18 1.48393 1.46639 5.15193 -5.2809
1220 9 15.0895 2.82357 5.61379 -5.05852
634 5 1.74255 14.6907 13.6873 -5.33111
633 5 2.09759 14.7233 13.85 -9.09622
632 5 2.09214 14.8081 14.2269 -4.92427
1888 13 1.1197 12.6646 15.6283 -7.36375
636 5 1.46109 14.8179 13.1206 -4.43814
628 5 2.73372 15.0147 15.3518 -5.78127
898 6 14.4199 5.95605 6.94242 -4.48183
2650 18 14.1076 4.58231 4.69774 -2.90678
1008 7 1.1442 4.5983 13.7144 -6.88962
631 5 2.41751 14.9064 14.4217 -4.80429
630 5 2.4005 14.9422 14.8129 -3.60179
629 5 2.76716 14.9704 14.9595 -6.38946
635 5 1.79849 14.7677 13.3126 -5.61887
2645 18 14.5867 3.25054 4.59713 -5.42486
2646 18 14.75 3.45354 4.88836 -5.25492
830 6 2.59609 4.90805 7.14398 -5.1418
2638 18 15.8794 1.57823 4.39155 -4.60741
2644 18 14.5988 2.85227 4.6416 -6.05186
826 6 3.09531 4.1216 8.05263 -8.2193
1893 13 1.76696 12.4401 14.4348 -4.99501
2651 18 13.8806 4.48992 4.39619 -5.81836
836 6 1.66089 6.21903 6.08628 -4.10714
833 6 2.27334 5.73145 6.68278 -5.09445
835 6 1.94362 6.17141 6.35519 -5.15663
834 6 1.97208 5.80373 6.44163 -6.54085
832 6 2.28079 5.34271 6.75938 -5.75837
831 6 2.53474 5.28969 7.05043 -6.74266
2647 18 14.7526 3.84463 4.86044 -2.87937
2649 18 14.4505 4.39355 4.73434 -4.23142
1212 9 1.48517 2.33583 6.30237 -3.19728
2648 18 14.4097 4.02307 4.80112 -2.55918
640 5 0.507994 14.6599 12.4025 -5.50518
626 5 2.63365 14.7067 15.9259 -3.77854
2652 18 13.546 4.69873 4.38037 -6.68808
6484 44 3.55986 16.0173 15.1188 -6.57625
1204 9 2.77188 1.51561 8.15516 -5.81234
1203 9 3.06651 1.28624 8.22629 -8.83893
2655 18 13.8069 5.43923 3.73646 -4.78487
6483 44 3.42632 0.422577 15.432 -3.77674
1206 9 2.46319 1.89959 7.68889 -6.53908
1205 9 2.79655 1.7303 7.82139 -6.67133
1202 9 3.0255 1.09574 8.56605 -5.52553
2653 18 13.5998 5.05229 4.21806 -4.13709
2657 18 14.1278 6.01779 3.92764 -3.72744
2654 18 13.7702 5.06637 3.86739 -4.69306
994 7 14.7446 6.90383 10.4379 -5.06217
623 5 2.6095 15.1192 0.809387 -6.18449
1005 7 0.85899 5.09308 12.89 -4.99984
627 5 2.66916 14.6701 15.5409 -3.3401
1884 13 0.991236 13.6746 16.0742 -5.62919
625 5 2.94316 14.7936 0.364446 -4.40855
6485 44 3.77466 0.439496 14.9018 -6.28461
829 6 2.77054 4.87 7.48275 -7.17827
637 5 1.26419 14.4873 13.0631 -4.48195
2643 18 14.9513 2.67889 4.7231 -6.03014
2640 18 15.6111 2.16415 4.17327 -2.81814
2641 18 15.4155 2.28783 4.48734 -10.0659
2642 18 15.1005 2.50177 4.40624 -12.4994
860 6 3.42516 1.78888 10.5697 -7.48852
1208 9 2.22507 2.24607 7.14205 -4.86316
1207 9 2.52222 2.06246 7.33384 -5.75274
1892 13 1.54532 12.1362 14.5198 -5.49598
638 5 0.898315 14.529 12.9215 -5.11833
8686 58 9.17058 14.1026 14.4384 -6.19952
996 7 15.0765 6.57266 10.8622 -5.00187
622 5 2.55571 15.1903 1.18295 -4.29766
2639 18 15.926 1.92723 4.22654 -3.22693
4640 31 10.4882 6.81942 2.08837 -5.80087
1211 9 1.85715 2.22818 6.34327 -4.2251
8688 58 9.56123 14.4239 14.8343 -5.3301
8687 58 9.18547 14.3945 14.7199 -6.21101
8685 58 8.79569 14.0317 14.3234 -10.077
1210 9 2.0352 2.50766 6.57386 -5.72314
1209 9 2.33333 2.35695 6.77882 -6.64443
655 5 2.28973 11.6351 11.078 -6.37595
897 6 14.7892 5.87694 7.05975 -7.71194
896 6 14.8334 5.54326 7.25763 -7.04386
1004 7 0.520909 5.18791 12.692 -4.67937
1003 7 0.573486 5.43829 12.3984 -4.58353
1006 7 0.823851 4.91295 13.2354 -4.86482
995 7 15.068 6.71497 10.4984 -7.05531
1890 13 1.29166 12.4011 15.0531 -3.20142
1891 13 1.48856 12.1005 14.8936 -3.15354
1887 13 1.19471 12.6875 16.004 -6.39887
1885 13 0.916823 13.2895 16.0244 -3.91364
1007 7 1.16712 4.78776 13.3743 -7.38558
1002 7 16.0332 5.5383 12.2284 -6.4717
1001 7 16.0605 5.76914 11.9188 -5.76774
899 6 14.3832 6.27675 6.74427 -6.33219
900 6 14.5934 6.26255 6.40687 -4.35812
5311 36 3.02548 4.21443 12.5757 -8.61745
5310 36 3.07471 4.06088 12.929 -6.01723
5309 36 3.41228 3.88398 12.988 -5.70997
657 5 2.70721 11.1794 10.8801 -3.54916
1886 13 1.21391 13.0556 16.1095 -4.98427
639 5 0.879306 14.6506 12.5587 -5.1517
1883 13 0.667432 13.8797 16.0225 -5.48777
654 5 1.99028 11.8599 10.9525 -4.48417
1889 13 1.28474 12.3743 15.4515 -5.05248
842 6 0.799923 5.07132 6.56427 -6.51191
839 6 0.728813 5.88258 6.00369 -4.28741
841 6 0.837267 5.456 6.48804 -4.63064
656 5 2.42863 11.4096 10.7873 -4.43758
840 6 0.715724 5.51624 6.10896 -6.13939
999 7 15.7753 6.11263 11.4109 -5.36447
998 7 15.442 6.27165 11.321 -5.43923
1000 7 15.7297 5.91449 11.7426 -5.72861
997 7 15.4373 6.4751 10.9895 -5.59458
5305 36 4.36652 3.60408 13.4028 -3.21423
850 6 2.0209 3.70967 8.24213 -7.09689
837 6 1.31873 6.06878 6.16647 -8.30176
838 6 1.05953 6.02833 5.87966 -6.67304
843 6 0.968072 4.98559 6.88977 -6.67362
1201 9 3.33441 0.86083 8.61767 -5.40171
894 6 15.0857 5.2345 7.75465 -5.31279
3220 22 15.6249 3.56709 3.75839 -3.93608
893 6 15.3756 5.20243 8.0213 -5.63916
6486 44 3.86551 16.0295 14.587 -5.15073
890 6 15.667 4.55758 8.69622 -9.44797
892 6 15.3219 4.96242 8.32124 -7.41821
891 6 15.6233 4.92392 8.55957 -6.85416
895 6 15.1494 5.4941 7.46313 -5.63277
5308 36 3.37965 3.623 13.27 -4.06259
5338 36 13.484 8.60072 8.55266 -4.87871
5337 36 13.8396 8.75397 8.57862 -4.59155
5301 36 5.60591 3.84747 13.724 -6.49909
845 6 1.54838 4.95321 7.22354 -5.08478
846 6 1.55988 4.57408 7.32252 -6.17016
844 6 1.3488 5.0545 6.90093 -5.91718
848 6 1.72467 4.1632 7.83456 -9.91621
5300 36 5.68732 3.49172 13.6039 -5.07423
849 6 2.015 4.06832 8.09524 -5.78743
847 6 1.77681 4.50503 7.63443 -6.06941
5302 36 5.28832 3.98235 13.5373 -5.39012
5299 36 5.96678 3.30589 13.7891 -2.80662
5306 36 4.01231 3.71653 13.3101 -6.4338
5304 36 4.66344 3.87441 13.3865 -6.03209
5307 36 3.72462 3.44571 13.3637 -4.76734
5303 36 4.99949 3.71353 13.4884 -4.91383
5339 36 13.2416 8.76878 8.29407 -5.00997
8690 58 9.97506 14.8456 15.1715 -6.98312
658 5 3.01338 11.3949 10.9978 -3.17883
4638 31 10.0706 6.48443 1.71569 -5.9877
4639 31 10.2782 6.48893 2.0362 -7.69552
4641 31 10.6486 6.86247 2.43312 -7.00419
825 6 3.34339 4.09917 8.35367 -6.9345
5321 36 1.38388 5.96905 10.354 -6.81867
5322 36 1.12202 5.95197 10.0498 -5.58743
6583 44 15.522 5.14739 13.6602 -5.44012
6584 44 15.6584 5.10931 14.0226 -3.08873
5323 36 1.05631 6.31145 9.89192 -6.43564
5324 36 0.859313 6.28624 9.54286 -4.86001
1881 13 0.417772 14.4673 15.909 -4.37573
1876 13 0.548209 15.8462 1.00972 -3.36164
1882 13 0.724802 14.2586 16.0373 -7.56595
5319 36 1.71754 5.66104 10.8033 -7.32521
5320 36 1.46555 5.61655 10.5027 -7.67614
1877 13 0.421521 15.4863 0.94205 -5.28429
1878 13 0.490572 15.3577 0.582409 -4.83731
5316 36 2.01139 4.98447 11.4865 -4.76364
6582 44 15.325 5.48413 13.5962 -5.11745
1879 13 0.407789 14.9757 0.518742 -3.32101
1880 13 0.500785 14.8455 15.9455 -6.38303
5312 36 2.65621 4.33506 12.4659 -5.68041
685 5 8.06097 16.1365 15.4648 -8.27266
684 5 8.078 15.789 15.2835 -6.50313
691 5 8.40745 1.97097 15.9512 -6.51171
689 5 8.52187 1.35759 0.401066 -4.43783
688 5 8.56479 0.996443 16.0618 -6.91388
692 5 8.02765 2.03998 15.9861 -5.88286
6403 43 7.47622 0.996373 0.506948 -6.79047
686 5 8.36034 0.459565 15.6962 -4.59524
6576 44 14.5874 5.95502 12.0577 -10.9381
693 5 7.83221 2.13509 15.6696 -6.12704
687 5 8.30984 0.839965 15.8005 -6.73837
5336 36 14.0529 8.59457 8.86862 -6.32173
8642 58 5.61401 11.8226 5.04202 -4.33605
690 5 8.47669 1.59507 15.8831 -4.67179
8651 58 4.02016 10.3182 6.4839 -7.01625
8650 58 4.35364 10.462 6.33247 -6.92564
5326 36 0.619424 6.84752 9.52719 -7.1803
5325 36 0.851065 6.61023 9.34071 -5.0906
5332 36 15.2253 8.44626 9.40906 -5.83794
5331 36 15.372 8.13367 9.24231 -7.17523
8649 58 4.34575 10.5152 5.94198 -6.32692
8648 58 4.62969 10.7402 5.78317 -4.03014
8652 58 4.09075 10.2259 6.86303 -3.66845
8647 58 4.60857 10.7738 5.39509 -4.66903
5333 36 14.9975 8.64569 9.16502 -4.00202
5327 36 0.492516 7.15828 9.32775 -5.13263
1981 14 12.8423 10.2038 4.75883 -5.83146
5330 36 15.6187 7.89752 9.44677 -4.0212
5328 36 16.0318 7.40702 9.51069 -5.87595
5334 36 14.6712 8.44183 9.08836 -2.07794
8645 58 4.84963 11.196 4.95433 -3.828
8483 57 13.3398 7.87537 3.71106 -4.49532
887 6 0.465507 4.20544 9.40915 -6.58248
8646 58 4.92282 10.9624 5.25223 -4.61757
5329 36 15.841 7.65076 9.26592 -7.04526
3276 22 3.10512 13.5182 12.2899 -3.98098
991 7 14.5875 7.73627 9.90106 -6.21425
3603 25 0.658484 0.418055 9.71025 -4.69223
694 5 7.44643 2.16294 15.708 -5.99944
987 7 13.4725 7.80482 9.18348 -4.84814
988 7 13.7132 7.99585 9.43025 -7.10749
990 7 14.26 7.93961 9.81061 -8.57183
989 7 14.0037 7.7674 9.55673 -5.31059
8653 58 3.78012 10.0558 7.05097 -6.1985
8654 58 3.81653 9.95653 7.43287 -3.70034
3291 22 2.43074 16.0988 9.20692 -4.91075
992 7 14.5087 7.3863 10.0819 -7.62712
8656 58 4.28888 9.73889 7.85917 -2.97193
8655 58 4.15682 9.76542 7.49523 -3.30587
8657 58 4.02007 9.54838 8.10154 -2.93703
5317 36 2.05953 5.2552 11.2131 -4.82024
6577 44 14.7616 5.62188 12.1655 -5.27991
1875 13 0.455 15.9861 1.35333 -3.5596
1874 13 0.56105 0.567202 1.36005 -4.07822
6579 44 15.0547 5.26129 12.6297 -4.33791
6581 44 15.2534 5.52366 13.2104 -6.38928
18 1 0.99085 11.5494 13.9403 -8.49254
1975 14 11.6042 9.35197 3.52479 -9.28077
1870 13 0.512932 1.70408 1.95546 -6.23192
1871 13 0.57801 1.32337 2.00808 -5.05173
17 1 1.18188 11.6797 13.6216 -4.97157
19 1 0.602222 11.5011 13.9036 -9.42
6580 44 15.1001 5.20872 13.0235 -4.88357
889 6 15.9391 4.55312 8.97738 -5.21373
6578 44 14.8326 5.57849 12.5439 -5.14148
1872 13 0.569831 1.11574 1.65898 -7.04
16 1 1.5749 11.6482 13.6642 -4.288
15 1 1.76249 11.7832 13.365 -4.66811
1978 14 12.4139 9.68813 4.02335 -8.24937
5315 36 2.36183 4.86617 11.6519 -4.84378
8482 57 13.2838 7.48882 3.79932 -5.21712
1873 13 0.551151 0.733864 1.70221 -5.83241
3279 22 2.93107 14.0295 11.6644 -5.73663
3282 22 2.75025 14.7907 11.01 -4.2463
3281 22 2.66762 14.4631 11.1999 -6.96987
3283 22 2.44934 15.0194 10.9118 -3.72543
3284 22 2.57049 15.2588 10.6222 -4.90533
3277 22 3.24674 13.5234 11.9264 -4.08497
3280 22 2.97085 14.3531 11.4257 -8.38296
3601 25 1.02582 15.7042 9.48637 -4.46117
8643 58 5.42582 11.4686 5.05751 -3.32352
888 6 15.9244 4.2064 9.18385 -6.98204
3278 22 3.27818 13.8917 11.8191 -3.96596
1974 14 11.5402 9.12237 3.21966 -7.83289
1976 14 11.9965 9.40131 3.61156 -5.99999
1982 14 13.2026 10.2828 4.8814 -9.19836
1977 14 12.0318 9.65166 3.90912 -8.78513
3292 22 2.19772 0.598594 9.10374 -4.49657
8644 58 5.05457 11.5177 4.95637 -4.21187
6566 44 12.3516 7.3676 10.3018 -7.8283
901 7 4.45397 2.01868 5.54151 -3.22785
993 7 14.7878 7.10869 10.1184 -3.80564
11 1 2.56455 12.4502 13.3997 -3.94501
13 1 2.28603 11.9654 13.0758 -3.97057
12 1 2.62157 12.1444 13.1533 -5.09715
10 1 2.84371 12.6756 13.5259 -4.62317
9 1 2.73337 12.9027 13.8314 -4.67034
14 1 2.14492 11.8357 13.4191 -5.83981
1869 13 0.451524 1.90042 2.29257 -7.65126
683 5 7.73685 15.7346 15.1025 -7.90533
902 7 4.5153 2.40105 5.57545 -5.39484
6565 44 12.4932 7.70759 10.458 -6.76953
1983 14 13.2109 10.4426 5.24272 -3.25392
8661 58 4.27568 10.1396 9.23515 -5.16237
1979 14 12.4393 9.93589 4.32084 -7.76213
8659 58 4.10335 9.81598 8.68208 -4.73359
8658 58 4.13137 9.47665 8.47093 -5.08191
8660 58 4.2322 9.78791 9.05965 -5.73035
1 1 3.47036 13.9535 15.6472 -7.9288
3288 22 2.83339 15.3632 9.30433 -6.13633
1980 14 12.8167 10.0215 4.40931 -6.33018
3 1 3.00093 13.8062 15.1753 -5.01349
3289 22 2.46106 15.4298 9.22178 -2.54557
3286 22 2.72907 15.2906 9.97406 -4.24871
3287 22 2.87853 15.1437 9.62436 -7.06463
3285 22 2.71744 15.0768 10.3092 -4.67921
5335 36 14.4477 8.60509 8.80586 -3.64978
747 5 14.4807 12.3745 3.35568 -8.61056
5314 36 2.30881 4.64674 11.9605 -6.30994
6586 44 15.9776 4.81468 14.5132 -2.94216
6402 43 7.43263 1.26344 0.786662 -6.21283
3293 22 1.8849 0.473732 8.87873 -4.49081
903 7 4.26732 2.5965 5.33889 -5.32536
3290 22 2.35276 15.7605 9.02483 -3.79714
5313 36 2.62095 4.46525 12.0998 -7.84179
653 5 1.84704 12.1081 11.228 -5.19101
5318 36 1.72709 5.33898 11.0193 -6.84894
986 7 13.3041 7.5235 9.39329 -5.29224
5 1 3.08845 13.9344 14.5302 -4.81149
2 1 3.28743 14.0555 15.3183 -5.52412
682 5 7.66061 15.3735 14.9816 -5.29971
5582 38 2.63147 4.07223 1.00627 -7.72567
5580 38 2.28725 4.383 0.551203 -4.4784
5581 38 2.3117 4.28969 0.927984 -7.80245
5686 38 15.5438 3.59629 13.9673 -3.98077
5577 38 1.60033 4.83447 15.7861 -3.40372
2798 19 11.9812 8.7774 0.956224 -7.58173
5576 38 1.29641 4.82742 16.014 -6.74518
5575 38 1.00205 5.09522 15.9546 -3.9176
5584 38 2.92533 3.67633 1.4458 -3.7063
5579 38 1.97336 4.59939 0.471658 -3.91552
2795 19 11.235 8.32111 0.47139 -9.92741
2797 19 11.6433 8.74915 0.756592 -7.82519
5571 38 16.0838 5.39119 1.08803 -3.25299
5573 38 0.872776 5.14803 0.790246 -4.06486
5574 38 0.743279 5.07958 0.443357 -4.51445
5572 38 0.589642 5.12783 1.08382 -8.47532
6987 47 14.0458 5.95037 13.8241 -4.70986
5583 38 2.61024 3.90796 1.36273 -4.99721
6903 47 5.41065 16.1017 1.3176 -3.40957
6962 47 15.3881 8.57426 14.1329 -3.99445
2801 19 12.4665 9.45465 1.49523 -9.92528
6906 47 4.62496 15.463 1.29348 -3.62738
7307 49 8.17881 3.65127 13.0774 -6.17563
2079 14 15.104 14.9495 14.1465 -5.75571
2080 14 15.2177 15.1695 14.4558 -4.95256
7315 49 8.72261 5.92595 12.6508 -8.88197
4688 32 14.6167 11.8583 4.62393 -4.8996
6904 47 5.11033 15.8768 1.20222 -5.15267
4685 32 15.2128 11.1265 4.94449 -5.84715
6901 47 5.27021 0.966121 1.36845 -4.16797
5578 38 1.87078 4.57332 15.8915 -4.37496
6972 47 1.23844 8.12146 15.5642 -4.41588
2802 19 12.811 9.45707 1.68649 -10.0933
5679 38 14.7547 3.44096 15.5549 -4.14826
5680 38 15.0711 3.1963 15.503 -4.10962
2799 19 12.0317 9.11499 1.1431 -9.62842
4686 32 14.9628 11.3244 4.70702 -5.35493
5681 38 15.3072 3.30915 15.2075 -6.43225
5682 38 15.6115 3.08741 15.137 -6.27802
5683 38 15.854 3.22201 14.8603 -7.24179
7343 49 14.1543 11.3034 1.78548 -7.73904
6974 47 1.00013 7.57266 15.256 -6.2735
7342 49 13.9905 10.961 1.69452 -6.15358
7341 49 13.6663 10.9762 1.49744 -8.29285
7340 49 13.5236 10.6164 1.44833 -6.98307
7339 49 13.2185 10.6532 1.20163 -8.77516
7337 49 12.8268 10.2548 0.803693 -9.36287
7336 49 12.806 9.87771 0.687215 -6.51878
7338 49 13.0833 10.296 1.10219 -6.86992
4684 32 15.2741 10.756 4.88828 -5.05843
6971 47 1.14996 8.48821 15.649 -6.9654
6973 47 0.947917 7.94689 15.3685 -4.82938
2803 19 12.8784 9.8175 1.79867 -7.11658
7272 49 15.6322 6.97393 2.15255 -5.67978
2081 14 15.2729 15.5561 14.4011 -5.55875
2083 14 15.6775 16.0086 14.09 -4.14059
2078 14 14.8778 14.6494 14.2603 -3.81696
2082 14 15.5575 15.629 14.1355 -4.38136
2076 14 14.4889 14.1524 13.9735 -3.9164
7332 49 12.0011 9.13998 15.7856 -7.58764
7330 49 11.5236 8.80476 15.4585 -6.58094
7333 49 12.1369 9.50755 15.8382 -11.9843
7331 49 11.7277 9.12446 15.493 -11.9593
7335 49 12.5331 9.85469 0.409693 -12.0195
7334 49 12.4298 9.49123 16.0996 -7.52558
7329 49 11.3423 8.72485 15.1347 -10.6018
2077 14 14.7506 14.438 13.9411 -4.2502
7328 49 11.0857 8.4232 15.1399 -5.86748
6905 47 4.8907 15.6934 1.46631 -6.37763
4689 32 14.5146 12.2008 4.77854 -5.46446
7271 49 15.8971 6.804 2.38547 -6.33597
2790 19 10.3954 7.25309 15.3508 -8.44287
5684 38 15.678 3.27191 14.5183 -9.82543
2794 19 11.2167 7.987 16.0668 -7.91415
2796 19 11.6052 8.38396 0.604109 -8.1642
2793 19 10.8507 7.88818 15.9818 -9.85312
2791 19 10.4375 7.50873 15.6191 -6.85716
2792 19 10.8217 7.59936 15.7316 -7.12
5568 38 15.5359 5.80212 1.82154 -4.65605
5569 38 15.6773 5.72624 1.46546 -4.82116
5570 38 15.9589 5.4675 1.45513 -6.04802
5566 38 14.869 5.87851 1.75312 -6.5394
5567 38 15.2228 6.03395 1.85178 -6.0491
5385 36 14.927 2.27462 11.708 -5.33484
5387 36 14.6253 2.52937 11.1753 -6.35759
7308 49 7.97496 3.91718 12.8606 -8.13267
5386 36 14.7727 2.59577 11.5272 -5.69022
2072 14 14.4043 13.2419 13.2375 -5.3927
2075 14 14.4522 13.9517 13.6404 -5.17438
6976 47 0.582749 7.06738 15.1394 -6.30358
6975 47 0.635361 7.43429 15.224 -3.92211
2074 14 14.1748 13.6961 13.6509 -5.20594
7309 49 8.20563 4.2194 12.7735 -6.13731
7310 49 8.00461 4.53515 12.6556 -7.5152
6977 47 15.9962 6.94396 15.1268 -4.12786
6980 47 15.336 6.51267 15.3823 -4.9323
6978 47 15.7983 7.00363 15.4547 -7.30535
6979 47 15.4106 6.89182 15.4089 -5.50076
6981 47 14.9778 6.46712 15.2214 -4.0487
6982 47 14.87 6.1013 15.2709 -7.71012
2069 14 14.3646 12.3389 12.8228 -2.95304
2073 14 14.1143 13.4857 13.3289 -4.23921
2071 14 14.2653 12.9226 13.0686 -3.76063
2070 14 14.5127 12.6225 13.0353 -6.19258
7311 49 8.2571 4.81587 12.579 -6.96231
7312 49 8.08428 5.13542 12.4291 -8.19461
7314 49 8.52901 5.58307 12.6987 -4.85695
6968 47 0.735365 9.22473 15.0882 -4.16865
6967 47 0.510319 8.99581 14.869 -4.22311
6963 47 15.2497 8.77981 14.4296 -7.71546
6902 47 5.36152 0.631006 1.55392 -4.6319
5565 38 14.5803 6.13408 1.73561 -6.06284
4687 32 14.9266 11.7069 4.80903 -5.26944
6970 47 1.05624 8.69497 15.317 -4.46589
6969 47 0.893148 9.04949 15.3989 -5.1478
6965 47 15.8332 9.07537 14.3908 -5.50346
6966 47 0.361746 9.20445 14.582 -5.48807
6964 47 15.5289 8.97702 14.617 -6.64772
7313 49 8.33091 5.45295 12.3849 -6.09553
7344 49 14.4387 11.2721 2.04582 -5.33721
2800 19 12.3676 9.11449 1.34865 -7.22587
7270 49 16.0382 6.47785 2.22585 -6.50614
7275 49 14.8793 7.19768 2.03012 -3.36923
7273 49 15.459 7.26135 2.35335 -3.87424
7274 49 15.1725 7.43817 2.13431 -4.71735
1329 9 13.8549 9.21312 2.61209 -6.1632
7345 49 14.6441 11.6003 2.07312 -7.21527
3298 22 1.27295 1.56841 7.82527 -5.36796
3299 22 1.34925 1.89063 7.60893 -5.46528
6985 47 14.2713 5.93741 14.4717 -4.81251
913 7 3.65281 3.58336 2.55471 -5.03117
1226 9 13.9142 3.48003 6.67765 -6.70666
1225 9 13.7221 3.19268 6.47459 -4.2532
1224 9 13.9079 3.07649 6.15326 -6.00169
7303 49 9.3099 3.29219 12.9994 -5.13129
6510 44 16.1015 2.15387 9.96509 -7.78806
6504 44 1.16173 1.2608 11.3666 -6.57976
3150 21 4.63535 0.834102 15.6777 -4.41076
1223 9 14.2825 2.98702 6.21561 -3.7461
153 2 2.45821 8.76686 8.10709 -4.71969
7302 49 9.50222 3.50254 13.2718 -5.87874
1240 9 14.7888 2.04196 10.3303 -4.82196
6473 44 1.7016 1.4912 1.75048 -4.98662
152 2 2.75505 8.75053 7.86336 -4.46401
6527 44 13.9369 5.37932 6.05548 -7.11467
1227 9 13.74 3.56961 7.00852 -5.97518
155 2 1.83718 8.72577 8.18824 -6.19688
7301 49 9.81589 3.73158 13.178 -4.85559
1229 9 13.634 3.95211 7.48781 -5.69485
157 2 1.38103 8.48809 7.79566 -4.06153
6525 44 14.2987 5.0163 6.49218 -5.75742
7304 49 8.99726 3.08357 13.1153 -7.30396
7305 49 8.70315 3.31269 13.2212 -6.89932
154 2 2.12181 8.72809 7.92268 -6.296
151 2 3.08983 8.86449 8.03205 -4.44106
4201 29 5.7619 6.16035 12.2894 -6.84779
1296 9 1.9117 3.99863 6.69263 -4.23362
1295 9 2.20094 3.98234 6.95311 -5.54961
1328 9 14.1697 9.4625 2.59095 -6.69169
6523 44 14.596 4.6396 6.94738 -6.57048
1292 9 2.53954 3.29515 7.56918 -6.31063
1327 9 14.283 9.58853 2.95042 -4.74535
5383 36 15.3517 2.11994 12.2294 -4.63079
1177 8 0.362274 6.34644 6.96935 -7.66666
1326 9 14.6308 9.77312 2.95948 -5.60245
1297 9 1.99329 4.27371 6.42171 -5.26556
1236 9 14.296 2.74936 9.34691 -5.22421
1293 9 2.55373 3.61111 7.3289 -5.36822
1294 9 2.21039 3.65708 7.15529 -5.0422
6526 44 13.9452 5.14305 6.36021 -6.06928