LAMMPS data file via write_data, version 2 Aug 2023, timestep = 9500251, units = lj

9000 atoms
2 atom types
8940 bonds
1 bond types
8880 angles
1 angle types
8820 dihedrals
1 dihedral types

-0.34024597909292886 16.850245979015405 xlo xhi
-0.34024597909292886 16.850245979015405 ylo yhi
-0.34024597909292886 16.850245979015405 zlo zhi

Masses

1 1
2 1.08

Pair Coeffs # lj/cut/opt

1 1 1
2 2.4255 1

Bond Coeffs # harmonic

1 74415 0.3919

Angle Coeffs # harmonic

1 664.893 114

Dihedral Coeffs # multi/harmonic

1 21.4898 -42.9574 2.9021 67.3404 0

Atoms # molecular

23 1 1 0.6223206512604961 0.9658799051956408 0.3245089843320704 0 0 1
24 1 1 0.35856594478261417 1.132618123143909 0.5646016066069343 0 0 1
25 1 1 0.06062120993277986 1.3187561299642134 0.4152430859963804 0 0 1
8480 57 1 -0.2794568106049815 0.26679393560081066 -0.09805434380579026 1 1 1
3627 25 1 0.5136532306168822 1.3686871744911866 1.6520792190446782 0 1 1
22 1 1 0.8421625120895413 1.2333057580871036 0.13773751477222046 0 0 1
910 7 1 0.6096165544962269 3.477866500111717 0.35845461002333423 1 -1 -1
914 7 1 -0.3183134709420584 3.7021294842334926 -0.19475669613339464 1 -1 -1
26 1 1 -0.256126915234629 1.3478959264276462 0.6417258972084885 0 0 1
7287 49 1 3.632017203648262 2.1421462883394935 2.815576362933658 0 1 1
1140 8 1 2.048558085935187 1.3094473969083613 3.749352479718013 1 1 -1
7256 49 1 3.6945284340344333 1.3502686241492687 1.858640856059898 0 1 1
3156 22 1 0.7151547162207519 -0.21149353079727679 1.8661190359706015 0 0 0
3155 22 1 0.9569269369003417 0.09188937897867988 1.9219593713341347 0 0 0
21 1 1 1.1571117056610127 1.100288709589061 -0.051086822660524056 0 0 1
7258 49 1 3.3642982122249134 1.8209809983080625 1.5498709914676876 0 1 1
7201 49 2 1.9845042864023852 0.21431310884561816 2.9633722855412543 0 1 1
7202 49 1 1.9766086420896523 -0.07637522342901859 3.2314015915142327 0 1 1
3629 25 1 -0.10607103536380894 1.1621538906919993 1.637044763242482 0 1 1
7265 49 1 1.860423497416587 2.6163442183466263 1.0852680616082078 0 1 1
748 5 1 3.0624183698101484 3.7499316041931516 -0.061504373601751594 0 0 2
7263 49 1 2.404915047514701 2.334727562769905 1.0616280248978978 0 1 1
7259 49 1 3.2441278182893485 1.5913201529339864 1.2195799945803685 0 1 1
7260 49 1 2.914560776581727 1.750376831579223 1.0829001645176524 0 1 1
7295 49 1 1.593147897794064 2.9714477175525675 3.9202613029582647 0 1 1
7261 49 1 2.611792841214652 1.7516153387940516 1.3269618562002496 0 1 1
7264 49 1 2.138931373217998 2.47606077731878 0.8328368503686931 0 1 1
7262 49 1 2.3332211549822843 1.9790192218028846 1.215642267664894 0 1 1
6988 47 1 3.8051053540674094 3.796243129456826 2.6364739564297452 0 0 1
3605 25 1 3.8604495459936796 2.5351012591280546 -0.08335535324822191 0 1 1
3621 25 1 1.0051496220117613 3.067120057739141 1.5709842052280178 0 1 1
7245 49 1 3.64252365713121 -0.25378748265949347 1.0023970406544518 0 1 1
909 7 1 0.8014075164876076 3.1315525223178122 0.2899396797687136 1 -1 -1
907 7 1 0.9937844378994201 2.5374597923587507 0.5697329266322156 1 -1 -1
906 7 1 0.7505443476386513 2.2505194475480907 0.44897776035181225 1 -1 -1
908 7 1 0.8183400959321441 2.8770350597039234 0.593512258215264 1 -1 -1
20 1 1 1.3485218739004727 1.4066946594143002 -0.19983339278997944 0 0 1
3620 25 1 1.064190629662326 3.3162012273585613 1.8626602576156497 0 1 1
3624 25 1 0.6462136405992264 2.10415726233149 1.5173620924515447 0 1 1
3623 25 1 0.8516367080690188 2.421852523967635 1.412776005039793 0 1 1
905 7 1 0.64150880194617 2.2872474876194477 0.08008615919128714 1 -1 -1
904 7 1 0.3913838069919757 2.023297699488668 -0.0772036273762261 1 -1 -1
2785 19 1 -0.08908618307128546 2.595189819006788 2.7868659075115962 2 1 1
3622 25 1 0.8946587877038878 2.711278730277772 1.6930733274194245 0 1 1
7353 50 1 -0.11275508661747197 3.327496017689075 1.1091211553828297 1 1 0
7354 50 1 0.0389651521060147 2.9608924967275265 1.1616554084240636 1 1 0
3619 25 1 1.3309977623559832 3.1698694227984987 2.100823337842299 0 1 1
3618 25 1 1.6968677278234052 3.2329449373477144 2.065605153287628 0 1 1
7352 50 1 -0.273043595212527 3.3886989449719476 0.7474747231307972 1 1 0
3617 25 1 1.881851809978472 3.1280014349703564 2.401394362749723 0 1 1
749 5 1 2.8673318470987312 3.3946123071500027 -0.060078475075826476 0 0 2
7267 49 1 2.102877256429133 3.2460212783963964 1.0528168607521529 0 1 1
1141 8 1 2.262721111765585 1.029552287529152 3.6115648047659934 1 1 -1
7266 49 1 1.9700013102584464 2.9456159818507928 1.2644568300187817 0 1 1
3609 25 1 3.393908839801556 2.591397410746925 0.8831926995105421 0 1 1
3608 25 1 3.7727181150495745 2.539850441758759 0.8195249608324373 0 1 1
7427 50 1 -0.27846877619009763 0.03462954078488256 2.5318605710157907 1 1 0
7269 49 1 2.2008233343429993 3.9021699324830434 1.0437218680237395 0 1 1
7243 49 1 3.168597800187508 -0.011518406145193116 0.6076668868285358 0 1 1
7268 49 1 2.162719615101213 3.5762306236722528 1.2588001262910888 0 1 1
1142 8 1 2.474815822892825 0.8740214493039546 3.9032809334564202 1 1 -1
5550 37 2 3.785372350093473 0.736395136025318 0.21741449469202878 1 1 1
7355 50 1 -0.18714439256874218 2.6882330783335027 1.039172172504468 1 1 0
7244 49 1 3.4212156179113666 0.04604709182666361 0.8889660050068606 0 1 1
3607 25 1 3.8394414138060124 2.26048067232171 0.5141483273958278 0 1 1
3610 25 1 3.280013622169296 2.8527018203259855 1.138564412353814 0 1 1
2789 19 1 0.33913826787067813 3.8199342117550223 2.7857950182894666 2 1 1
2855 20 1 -0.17534891413158923 0.45731691588278844 3.6668371042543235 0 1 1
7424 50 1 -0.09494295106913125 0.7283834864637815 2.604296954657333 1 1 0
1332 9 1 3.745669475602674 3.250821302478308 3.6424697951220755 -1 0 1
6984 47 1 2.6720282878163237 3.878341837582669 2.941009594734586 0 0 1
1331 9 1 3.7065592352533265 3.643122313176401 3.5818625092029763 -1 0 1
1139 8 1 1.7729735196678744 1.3811939241313422 3.4848045491392527 1 1 -1
1136 8 1 1.5031203594606057 1.7368947500404501 2.667480732656788 1 1 -1
1137 8 1 1.7016085779759704 1.428364059017992 2.816882576214836 1 1 -1
6983 47 1 2.5354199715481864 3.859764210534447 3.302972611870256 0 0 1
3153 22 1 0.8548319632908823 -0.013403974034448929 2.565562249838184 0 0 0
3152 22 1 0.9693870024001778 -0.11680264115201666 2.9154246830074695 0 0 0
3154 22 1 1.1279964203472799 0.022614492286446797 2.28513923280978 0 0 0
1134 8 1 1.864003354684455 1.9104781163663178 2.121473925497347 1 1 -1
7420 50 1 0.2310886537770298 1.7173240446226807 3.3427960797579215 1 1 0
1138 8 1 1.9107782294261404 1.5020913146205768 3.14138045479029 1 1 -1
7423 50 1 -0.06797556370177327 1.074430650664004 2.7895574391731706 1 1 0
1135 8 1 1.7020707800112578 2.0288210614516835 2.471654148011175 1 1 -1
7428 50 1 -0.17950733279827086 -0.27182199130703566 2.3064612730333507 1 1 0
7422 50 1 0.275928827483076 1.1756991123653489 2.913660733607908 1 1 0
3628 25 1 0.2291526742371489 1.176797112272977 1.8465456288918474 0 1 1
7421 50 1 0.3080779008975284 1.55591399097463 3.0015823532844514 1 1 0
7257 49 1 3.712895479468517 1.682392057467085 1.6725510432422812 0 1 1
1126 8 1 3.165251881283432 0.1831887633232273 2.829929974000146 1 1 -1
7286 49 1 3.835951475721444 2.2137467044652475 2.486137153194532 0 1 1
1127 8 1 2.959344448829887 0.5117884286692554 2.770157800473893 1 1 -1
7418 50 1 -0.20134434024063808 1.7975407690929481 3.846880882394018 1 1 0
1129 8 1 2.9277057610385904 1.1497391459209036 2.8641253563876363 1 1 -1
1131 8 1 2.7929189557813965 1.594227429960379 2.3273979588485663 1 1 -1
1130 8 1 2.9274085234576472 1.2529457939378006 2.4862134653847066 1 1 -1
1128 8 1 3.1077164769806753 0.8087868369229474 2.9771649545418213 1 1 -1
1133 8 1 2.2603564103551657 1.9549009688725127 2.187274565907108 1 1 -1
1132 8 1 2.409046119091218 1.6219986240558497 2.300342466674149 1 1 -1
750 5 2 2.618808591553341 3.37029135652849 0.2514215289422381 0 0 2
4567 31 1 3.4694612279611796 -0.22263723115200523 3.8310997502044657 1 1 0
1125 8 1 3.1259488316209394 -0.06195371127726684 2.5334278793277862 1 1 -1
7242 49 1 2.9087506369155816 -0.2882464223762629 0.7084737643532419 0 1 1
3625 25 1 0.8845899361778318 1.898942470754109 1.7569432461740626 0 1 1
3626 25 1 0.6955643475565862 1.5923920904105875 1.9207087309813025 0 1 1
2788 19 1 0.4549455183813631 3.452794179918536 2.7345821398433605 2 1 1
2787 19 1 0.1516863640796981 3.18412029603474 2.767506472157488 2 1 1
2786 19 1 0.23357229776302169 2.803371816913709 2.7291993525066025 2 1 1
7290 49 1 3.0143974336125448 2.8143165420897147 3.238973840450491 0 1 1
7241 49 1 2.617521151285325 -0.25691433343545994 0.456189704766522 0 1 1
3612 25 1 3.2957643607647453 2.984609050968501 1.7788833255152308 0 1 1
7288 49 1 3.485128327583561 2.472184701414742 2.9417973343033834 0 1 1
7293 49 1 2.196349931073787 2.6840485296672068 3.7580914614890704 0 1 1
7294 49 1 1.959609974019061 3.016241409478047 3.780853313933478 0 1 1
7289 49 1 3.2634841443238587 2.4918908171671466 3.244977680501068 0 1 1
911 7 1 0.4480981065177153 3.6150880906789706 0.016955109369238885 1 -1 -1
912 7 1 0.22263301008695224 3.9402029275867463 0.07445907303958776 1 -1 -1
1330 9 1 3.520069190031299 3.788213893400272 3.877223255122784 -1 0 1
3614 25 1 2.8105968393707315 3.069530528271651 2.1262401145387377 0 1 1
3616 25 1 2.2581099747381375 3.173614564421524 2.4122667991388425 0 1 1
3613 25 1 2.9946713093051125 2.801913985348283 1.903410011255457 0 1 1
3611 25 1 3.4352452775970166 2.7674371405369915 1.4927722629401758 0 1 1
3615 25 1 2.4501451261271976 2.9324425878999034 2.1936088611973092 0 1 1
7292 49 1 2.503619421760019 2.6438919499362448 3.5040495662757354 0 1 1
7291 49 1 2.8087013980418405 2.8960527174101194 3.5551153396321933 0 1 1
3151 22 2 0.6969840942550354 -0.28774084080032153 3.134932050972332 0 0 0
7419 50 1 -0.09208286709756486 1.5890596411585904 3.539516489746859 1 1 0
7246 49 1 3.781356601419171 -0.2823770221662136 1.3728946307419014 0 1 1
7237 49 1 1.5655004014877039 -0.31452880050704957 -0.07177993907527347 0 1 1
6986 47 1 3.178499736123469 3.870497518173673 2.5580967422329737 0 0 1
8547 57 1 0.3458967953946722 1.3759238818513226 4.768597286743902 1 1 0
770 6 1 0.22731360794848066 0.525165975193447 5.535138618079694 1 0 0
8546 57 1 0.40379755932105477 1.6198864478274886 5.075990660925023 1 1 0
784 6 1 3.494027039617895 -0.14319933060786058 7.867225285352275 1 0 0
8548 57 1 0.7036819928423224 1.27096647406996 4.635591391902135 1 1 0
8545 57 1 0.3997240396939259 1.4953388658756281 5.436836100621467 1 1 0
2857 20 1 0.1872023798659408 0.3010631828712067 4.157873270296852 0 1 1
8549 57 1 0.9057688939520445 1.0576313632872942 4.902642158910364 1 1 0
769 6 1 -0.15744779853028704 0.5475165239647716 5.587100700098741 1 0 0
8550 57 2 1.2606191526426023 0.9797776046448274 4.750638083413392 1 1 0
2858 20 1 0.2895257826949651 0.1863302869228215 4.515144111340571 0 1 1
2860 20 1 0.756339656720606 0.035659652553016175 4.938329860669724 0 1 1
2625 18 1 1.8196561117622547 1.6337188285163353 5.7608881750825445 1 0 1
2626 18 1 1.61901512581253 1.5061405905137026 6.081788962133283 1 0 1
767 6 1 -0.33910313883233306 0.21997869937811232 5.0867516412236 1 0 0
2859 20 1 0.6582828702643224 0.12650052148811453 4.579946788062767 0 1 1
1213 9 1 2.131109371626833 3.7844053778468654 8.03464652894164 -1 0 1
7296 49 1 1.6498789502189808 3.0042849796699396 4.314698028671849 0 1 1
205 2 1 1.599062434837645 0.6557867011117609 7.654378281591617 0 0 0
2663 18 1 -0.3133538388689061 2.164584216050637 6.715707668071424 1 0 1
2637 18 1 3.2384292503851384 2.7881769453000858 8.208785305697276 1 0 1
197 2 1 0.14724672991582843 0.05153304090059696 6.904573209080892 0 0 0
781 6 1 2.5331061766154046 -0.34007270831441616 7.7481461733835815 1 0 0
2662 18 1 -0.29473615292388766 2.4046454972881577 7.021110256856963 1 0 1
1159 8 1 3.169331065711613 0.3077234233221753 6.443109564015506 1 1 -1
1163 8 1 3.1637421142091395 0.8481473400865573 5.750094769986946 1 1 -1
1162 8 1 3.0080319024976307 0.9842289687532573 6.091089967079701 1 1 -1
1165 8 1 2.9586500752486855 1.3225028481543624 5.374391521277404 1 1 -1
1160 8 1 2.836312718895227 0.3574728983596839 6.237375850447446 1 1 -1
1161 8 1 2.742358246729698 0.7372801973424041 6.2071465712501945 1 1 -1
1164 8 1 3.285067464888457 1.139690167175589 5.505404957442386 1 1 -1
1146 8 1 2.832562783544164 0.4025130996626852 4.9902238892538415 1 1 -1
1166 8 1 3.0127476564760904 1.657193390952493 5.188026339354221 1 1 -1
2627 18 1 1.851993431345666 1.3999595084046175 6.390226503320388 1 0 1
1167 8 1 2.7273948461200543 1.9037618542344528 5.095596905798821 1 1 -1
1144 8 1 2.4631196647356326 0.44481786430567416 4.430616270841149 1 1 -1
1147 8 1 3.0807090925542107 0.1728995836966668 4.780460386697095 1 1 -1
1145 8 1 2.5843988682540826 0.6109675794782808 4.772072007641571 1 1 -1
1150 8 1 3.8119598385908535 0.23446186913862188 5.235148012382306 1 1 -1
1215 9 1 2.647038023654925 3.7399445451516637 7.6770864629528965 -1 0 1
1143 8 1 2.2722733225815133 0.6461045755763797 4.159847785011801 1 1 -1
1148 8 1 3.431334543037656 0.33566648083313166 4.699127322125735 1 1 -1
8544 57 1 0.19170178094878365 1.736914367640511 5.654408672130981 1 1 0
8543 57 1 0.12893545783654436 1.6407950162269187 6.018731984992367 1 1 0
2047 14 1 3.952852259103757 1.8752230264522312 4.319738878103004 0 0 1
2623 18 1 1.7553537219321882 2.183645231195469 5.3719326258744236 1 0 1
5381 36 1 0.06534096089130181 3.696102244113723 4.591698404339705 1 1 0
8542 57 1 0.474808888820096 1.6930964071534786 6.197953869941999 1 1 0
2621 18 1 1.690997774666045 2.815062094315735 5.553569921034038 1 0 1
5380 36 1 0.06346774224102109 3.609840542091695 4.9717949518401365 1 1 0
2624 18 1 1.5932782064401911 1.9274275100338398 5.62249560125833 1 0 1
2622 18 1 1.5563683230973753 2.517679972426723 5.3470111061401795 1 0 1
5377 36 1 0.3287684353006297 3.4789421808271412 5.681551406183007 1 1 0
5378 36 1 0.2109035929318651 3.203507890739819 5.430103620895281 1 1 0
5379 36 1 0.2579642053373411 3.276154649236558 5.048757350377068 1 1 0
5376 36 1 0.23155955695356378 3.4475975366590643 6.061173960726117 1 1 0
7297 49 1 1.4670457163849167 3.2834558915153313 4.546263997736087 0 1 1
7299 49 1 1.1372691043240957 3.8218309583572303 4.564775851955387 0 1 1
7298 49 1 1.4289621261235619 3.626781482575746 4.371212723436964 0 1 1
204 2 1 1.6680947818414227 0.33550904949089255 7.836012863986797 0 0 0
816 6 1 3.8051217692147805 1.5686112142575865 6.311100995779402 1 0 0
1174 8 1 3.284601930824815 3.550426149084355 5.3699326605613455 1 1 -1
2619 18 1 2.252642332798561 3.0396020377588866 5.761038589435524 1 0 1
2620 18 1 2.051336240624817 2.9501160228252927 5.437556434951967 1 0 1
2618 18 1 2.2565867641575355 2.7618454376777466 6.033635404084147 1 0 1
1171 8 1 2.8569490022615107 3.0720278165862105 4.605640308497946 1 1 -1
1169 8 1 2.682360027381597 2.4906845277996097 4.791222943679412 1 1 -1
1168 8 1 2.90533550236476 2.1912439352564115 4.93456082726529 1 1 -1
1170 8 1 2.8605203446810448 2.6935069210292033 4.5111243560923215 1 1 -1
1172 8 1 3.053083151883339 3.138746893867767 4.936735415463002 1 1 -1
1173 8 1 3.1017474308182917 3.5248902594935463 5.048082367752668 1 1 -1
203 2 1 1.3689448778853863 0.1550309429448919 8.041136584858164 0 0 0
2613 18 1 3.6524430196254065 3.104892906802664 6.3775802386840175 1 0 1
2615 18 1 2.993768985180986 3.2538003657199734 6.518604600886659 1 0 1
2050 14 1 3.930245753520179 2.1375875536595075 5.303737559587878 0 0 1
1175 8 1 3.3508844241758973 3.893309472060367 5.498466215282645 1 1 -1
2658 18 1 0.2738496997276628 2.6296867885003636 8.132343039911381 1 0 1
1176 8 1 3.5674865017667776 3.9354261146609018 5.816048511401536 1 1 -1
775 6 1 1.3619287054764844 0.10736670665506826 6.573463740747573 1 0 0
773 6 1 0.9533792477503915 0.20101852973547774 6.045073266117076 1 0 0
776 6 1 1.7532660286902235 0.15712403301125644 6.608533414678795 1 0 0
774 6 1 1.1430688872111612 0.3584272457603038 6.356967125342577 1 0 0
772 6 1 0.8000053893070433 0.506526666422066 5.866235958059652 1 0 0
771 6 1 0.4075199462384026 0.45128477007583123 5.8677417743521625 1 0 0
201 2 1 0.7805415644204905 -0.15626169949725657 7.890883632781307 0 0 0
206 2 1 1.2670549404467868 0.8478053954977525 7.738054777744823 0 0 0
2051 14 1 3.8973703856253668 2.4875909957498243 5.494927709029008 0 0 1
209 2 1 0.5740295603629071 1.1998809809612128 7.567654176975316 0 0 0
2635 18 1 3.2346324092138534 2.438782611314333 7.656061969878485 1 0 1
212 2 1 -0.057744892431528416 1.0684081167675574 7.211116489662403 0 0 0
211 2 1 -0.09237328260773264 1.3143847041214 7.493088363669991 0 0 0
202 2 1 1.1389076855318252 -0.018952278120193067 7.7805446783609025 0 0 0
207 2 1 1.2363655212854876 1.2080548116961558 7.586016665350698 0 0 0
1149 8 1 3.682537345628516 0.4878394176947529 4.9589660311408625 1 1 -1
208 2 1 0.8933924557978816 1.3865823638281327 7.636525624244374 0 0 0
2632 18 1 3.0669789650542065 2.052655351243095 6.716764249100066 1 0 1
782 6 1 2.873319879213172 -0.15784774959999856 7.738402658805228 1 0 0
2656 18 1 0.9117457709217625 2.7007405933744595 8.163015619940287 1 0 1
196 2 1 -0.21186347280293816 0.12657445589071675 6.795280929133044 0 0 0
777 6 1 1.8970696091669677 -0.14903120012681653 6.785245213533502 1 0 0
199 2 1 0.5607552978672358 -0.2714944056904908 7.290161911436848 0 0 0
1156 8 1 3.83106059988058 -0.03659212154723129 6.440779853048798 1 1 -1
1158 8 1 3.205379242575928 -0.04768584867759795 6.616909129016889 1 1 -1
824 6 1 3.4684265252992046 1.344245213995759 8.074540397935227 1 0 0
780 6 1 2.3225674575319806 -0.23970236833136943 7.43999551216871 1 0 0
819 6 1 3.9054760110758338 1.0097532190166212 6.815670152458239 1 0 0
2614 18 1 3.3697891624857594 3.367350383051599 6.460894289119182 1 0 1
2628 18 1 2.1782314335161166 1.6098620025201076 6.465497808309344 1 0 1
2629 18 1 2.2793681624460125 1.5837036696096065 6.84244103066816 1 0 1
2630 18 1 2.558477083336069 1.8265572199416247 6.948494051368077 1 0 1
2611 18 1 3.929043553380576 3.1290115725079786 6.964440616024088 1 0 1
821 6 1 3.7902009265350873 0.692547962262497 7.39668116355399 1 0 0
778 6 1 2.2817027410886532 -0.15345308584669398 6.771700080079538 1 0 0
2048 14 1 3.835855779469659 1.8677894431371533 4.69098363863519 0 0 1
1157 8 1 3.5801622855020496 -0.14445219418870495 6.718211058401856 1 1 -1
822 6 1 3.704347719039773 1.01376602857206 7.585997827922435 1 0 0
2856 20 1 -0.1701930696323058 0.41080868242083335 4.048950671263417 0 1 1
1216 9 1 2.4795560100008203 3.942776395845164 7.387932294647266 -1 0 1
823 6 1 3.551860367293025 1.001745177317765 7.937858216827797 1 0 0
2631 18 1 2.8477827351337632 1.7418883774562914 6.696690408845371 1 0 1
785 6 1 3.804546538851449 -0.3268862602059769 7.987866976793882 1 0 0
2636 18 1 3.132744353426262 2.7759860292956984 7.853757595058594 1 0 1
198 2 1 0.1758958560091467 -0.1882304777714574 7.212175402928627 0 0 0
2661 18 1 -0.03755972980853711 2.290007130093675 7.280772646375635 1 0 1
2660 18 1 -0.0020152081497140095 2.579353966857952 7.558550108977114 1 0 1
8541 57 1 0.535978879796638 2.04480617063767 6.377279121991867 1 1 0
8540 57 1 0.9072404773496989 2.0605411117550605 6.526566898973624 1 1 0
8539 57 1 1.1019941611139097 2.352840493501857 6.3425288115057565 1 1 0
8538 57 1 1.455782917621627 2.4271590764583353 6.5052739453419735 1 1 0
8537 57 1 1.425261220587375 2.574652811129114 6.8800302857893145 1 1 0
5375 36 1 0.35344013866152757 3.7376694479481163 6.310227445907058 1 1 0
210 2 1 0.2669278437958198 1.443137980228944 7.5638542717947335 0 0 0
5374 36 1 0.7394482426795002 3.7344941959016964 6.379911019010144 1 1 0
8533 57 1 1.2610859425903649 3.413745519015423 7.579653156824234 1 1 0
8535 57 1 1.6515050365397212 2.9499858530100647 7.3303803937362355 1 1 0
8532 57 1 0.8999548728439188 3.6068350784407706 7.593352839385296 1 1 0
8534 57 1 1.3230627891434605 3.161363113825697 7.304819394874552 1 1 0
8536 57 1 1.7619718073773485 2.7659199886670716 6.994282614649666 1 1 0
8531 57 1 0.8803473341856636 3.843416767329174 7.907017747349139 1 1 0
2659 18 1 0.28057044783014307 2.460092444446431 7.789032174971554 1 0 1
2634 18 1 3.111029004329293 2.3894533804884763 7.287591006866779 1 0 1
2616 18 1 2.8631071186800394 2.9969805126878692 6.2444537240390945 1 0 1
1217 9 1 2.2378742807658023 3.7427738811975964 7.159383699268507 -1 0 1
1219 9 1 1.863691976126845 3.7752645675599057 6.642701787279064 -1 0 1
1214 9 1 2.385480088939353 3.5292813687301012 7.889160418283353 -1 0 1
2617 18 1 2.472298201352822 2.9093121200135035 6.340310064769623 1 0 1
2633 18 1 3.2238270656316086 2.0801431606336087 7.0859797208591075 1 0 1
1220 9 1 1.7472320145628695 3.952069477849064 6.309466921766195 -1 0 1
634 5 1 0.4309449308469746 0.265765306906971 9.017989108150505 0 0 1
633 5 1 0.6909811848119376 0.4081689025588816 8.749837280197243 0 0 1
632 5 1 0.6539422353053994 0.7927784108314226 8.635554190595961 0 0 1
1888 13 1 -0.15481991324899116 1.006602124375491 11.430281250701459 1 0 -1
636 5 1 0.987263121932421 0.04590438603394981 9.347172595816602 0 0 1
628 5 1 0.693793845875017 1.8614088882762965 9.195948359895004 0 0 1
898 6 1 0.8513062805785494 1.7147395217498076 10.280487187158203 1 0 0
2650 18 1 1.9470677517425248 1.9581697125851125 9.13902731161547 1 0 1
1008 7 1 0.2868438741993985 -0.15080215408562112 11.319374897585996 1 -1 -2
631 5 1 0.7713965367023223 1.0645376916404723 8.895788957498835 0 0 1
630 5 1 0.7174369574441355 1.424445452856025 8.744143229454718 0 0 1
629 5 1 0.9208050867395636 1.6847485964271267 8.909815203640308 0 0 1
635 5 1 0.6200691419602912 0.19451376404500975 9.34997519353126 0 0 1
2645 18 1 3.068692118204196 1.5296993231584495 10.034025133222137 1 0 1
2646 18 1 2.7079650943898317 1.4540415668614328 10.11621060532782 1 0 1
830 6 1 3.901953161174373 0.6392521001121304 9.511470023349577 1 0 0
2638 18 1 3.136484547179122 2.4938309106865812 8.447295440759268 1 0 1
2644 18 1 3.1322380721121075 1.8987186180611437 10.09288446268831 1 0 1
826 6 1 3.7854428589851317 1.2948104411678836 8.594668673397571 1 0 0
1893 13 1 -0.29794627905187987 1.1429449879432516 9.970485944217193 1 0 -1
2651 18 1 2.117537276169384 1.7881925894022714 8.828753011794648 1 0 1
836 6 1 2.613473627012208 0.3335801200204124 10.385296347720418 1 0 0
833 6 1 3.159876770320814 0.04314707363084114 9.596830489870941 1 0 0
835 6 1 2.8234156642786536 0.06469954331536937 10.185197927121141 1 0 0
834 6 1 2.8726137975864914 0.1874779993709419 9.812596130383012 1 0 0
832 6 1 3.5009580774610827 0.17296593785252445 9.734120437194866 1 0 0
831 6 1 3.7648502094466565 0.2539448647308852 9.465427313302676 1 0 0
2647 18 1 2.4311217588457126 1.7151778180234092 10.01397504647324 1 0 1
2649 18 1 2.1141670353230944 1.9965543122066403 9.486147834323509 1 0 1
1212 9 1 1.913598110367475 3.6587981814234802 8.34376968641219 -1 0 1
2648 18 1 2.2982911555807295 1.685447004398915 9.648326813941205 1 0 1
640 5 1 1.6014766879279965 -0.20261264639468002 10.015513489798666 0 0 1
626 5 1 0.1297945331428101 2.0169899721378677 9.437329151216922 0 0 1
2652 18 1 1.840838855392355 1.813048557634668 8.556641866288414 1 0 1
6484 44 1 0.2261582077394667 3.319137634694376 8.88534278602456 1 0 0
1204 9 1 0.911490449716271 3.0759688964136336 10.38467821635233 -1 0 1
1203 9 1 1.0388450684089832 3.039279413438763 10.762423225606048 -1 0 1
2655 18 1 1.2473845076933776 2.615695901822382 8.358671101142882 1 0 1
6483 44 1 -0.1592871814298151 3.212905164047015 8.898935602536845 1 0 0
1206 9 1 1.084021165067147 3.0063961434743325 9.717374978923981 -1 0 1
1205 9 1 1.1893322189428663 3.0439209807897436 10.104254082272114 -1 0 1
1202 9 1 0.763830120249166 3.1440723901797756 11.036860483323093 -1 0 1
2653 18 1 1.7191338435319485 2.1629163016376847 8.451912769549917 1 0 1
2657 18 1 0.6015353092251652 2.5259546993499122 8.328299404974963 1 0 1
2654 18 1 1.3733355458079588 2.244282480187454 8.319828393907352 1 0 1
994 7 1 2.650403748256405 1.8591368725841688 12.465702764549585 1 -1 -2
623 5 1 -0.12087715608511759 2.6032466757078216 9.855426823484883 0 0 1
1005 7 1 0.7762595004708024 0.2651286557436753 10.942446972741338 1 -1 -2
627 5 1 0.32665410131841255 1.9293091882150644 9.116870810194468 0 0 1
1884 13 1 0.5722721679952827 0.493184205477576 12.415553068631235 1 0 -1
625 5 1 -0.22755633551633875 2.141717368062092 9.379973681119484 0 0 1
6485 44 1 0.2788911982145692 3.629257540597107 9.123230479896634 1 0 0
829 6 1 3.9338866953269145 0.8453897260718226 9.189193822170889 1 0 0
637 5 1 1.2492283820072871 0.2294217651485282 9.56083269820355 0 0 1
2643 18 1 3.4597464078572124 2.0684191898052138 9.942125992001962 1 0 1
2640 18 1 3.074933992916684 2.251169139883038 9.028701748530061 1 0 1
2641 18 1 3.1048665196054275 2.283953602491034 9.41011121804804 1 0 1
2642 18 1 3.4570136941598033 2.156736900683767 9.560598218977052 1 0 1
860 6 1 1.6896583185658982 3.878387299573941 11.472441811107924 1 0 0
1208 9 1 1.6577583073661333 3.2965606669755005 9.563859513202214 -1 0 1
1207 9 1 1.4172346654309478 2.9862787422149903 9.487674335767096 -1 0 1
1892 13 1 -0.22087348862273443 1.0081609129045852 10.325737176823608 1 0 -1
638 5 1 1.6323066966608768 0.14112100289054552 9.49477463455512 0 0 1
8686 58 1 3.7819892203529752 3.721666315915308 9.992365939285335 1 1 0
996 7 1 2.5479516264942226 1.2953096834310962 12.13930717280067 1 -1 -2
622 5 1 -0.26908865531177895 2.6991253342758608 10.201594468891892 0 0 1
2639 18 1 3.1819343219572187 2.5680891129839827 8.821797735645221 1 0 1
4640 31 1 3.282669389320999 3.8799417295597998 8.553824586532494 1 1 0
1211 9 1 2.086054330885602 3.592312841430688 8.689660251292995 -1 0 1
8688 58 1 3.1843031406243227 3.878307337512406 10.142372847444035 1 1 0
8687 58 1 3.464381208854762 3.9016693558711264 9.875201427005083 1 1 0
8685 58 1 3.7449129955689573 3.3297600707737156 9.99109309254359 1 1 0
1210 9 1 1.8301174291513882 3.4882571866611665 8.965165582453215 -1 0 1
1209 9 1 1.9469003745995885 3.3628156665257922 9.316490585573478 -1 0 1
655 5 1 2.143758361417763 0.15483390030479816 12.283725637395415 0 0 1
897 6 1 0.6642498238356422 1.8112004461776934 10.585072309596914 1 0 0
896 6 1 0.7521314662744611 2.1274480802642803 10.787954495528643 1 0 0
1004 7 1 1.0410264446523343 0.556522467917654 10.93078927299887 1 -1 -2
1003 7 1 1.4022935053294014 0.46147543575652983 10.844384877710407 1 -1 -2
1006 7 1 0.8799634025603549 -0.03338504524026453 11.162953120328137 1 -1 -2
995 7 1 2.406719179277401 1.6293292096701286 12.26930353535141 1 -1 -2
1890 13 1 0.05072085187777253 1.2235413140412228 10.869548377452869 1 0 -1
1891 13 1 -0.025841378080397215 1.2882447924622538 10.498491876409535 1 0 -1
1887 13 1 0.09811114453942604 0.7343870749585042 11.56920761834757 1 0 -1
1885 13 1 0.4652478498857422 0.4901645726573104 12.042914992282672 1 0 -1
1007 7 1 0.617137123967923 -0.3314057086970728 11.210395733227475 1 -1 -2
1002 7 1 1.5813786443829407 0.8179574926590416 10.828371198363534 1 -1 -2
1001 7 1 1.7049682158785093 0.9652724288232128 11.166331658776185 1 -1 -2
899 6 1 1.2395349219591778 1.5848307971978526 10.273662824418894 1 0 0
900 6 2 1.2864881727639244 1.3784901873140152 9.948614262191795 1 0 0
5311 36 1 1.296889838811963 1.689903965754759 12.324513454834529 1 1 0
5310 36 1 1.191066296926373 1.671136179180384 11.949134152311462 1 1 0
5309 36 1 1.3895153824448527 1.8217135445096173 11.65307728656098 1 1 0
657 5 1 2.686086380635729 -0.04271295287076843 12.084481851948645 0 0 1
1886 13 1 0.21734551678140324 0.7591925231033749 11.948462135747784 1 0 -1
639 5 1 1.705053346488567 -0.21368914610390205 9.64041909436648 0 0 1
1883 13 1 0.8098224766438806 0.20680461391394322 12.494446001694001 1 0 -1
654 5 1 1.879669178896255 -0.14435540669771493 12.342294112936807 0 0 1
1889 13 1 -0.23070057090991977 1.001650782599734 11.051773464912916 1 0 -1
842 6 1 3.5133417877265276 1.1542655832343796 10.919574271388484 1 0 0
839 6 1 3.1217632546929734 0.5088231358501926 10.966694833807907 1 0 0
841 6 1 3.6603496868443646 0.86518749766998 11.145503175425759 1 0 0
656 5 1 2.5145235766139504 0.1420128921675372 12.366636451276095 0 0 1
840 6 1 3.5073999143508163 0.520910795160779 11.03241593412066 1 0 0
999 7 1 2.333488350355232 1.0963265758357184 11.184553992083313 1 -1 -2
998 7 1 2.4936675961580823 1.2304555647909912 11.505025661193038 1 -1 -2
1000 7 1 1.981253621407629 1.2413878587659346 11.07851685483119 1 -1 -2
997 7 1 2.3511040017139933 1.099637449145049 11.849465105646148 1 -1 -2
5305 36 1 2.293542764446516 2.606271028810198 11.668531215900643 1 1 0
850 6 1 3.550599577830109 3.8047667618794767 11.013876876965755 1 0 0
837 6 1 2.603363018810561 0.2377407543015252 10.767122824720104 1 0 0
838 6 1 2.971007433877373 0.16531574580242137 10.898720591000156 1 0 0
843 6 1 3.725968735189526 1.486158315557119 10.983031772166523 1 0 0
1201 9 2 0.9347434959945373 3.1138727814478946 11.378630304065386 -1 0 1
894 6 1 0.4635423681003892 1.9393949380301168 11.37588485976476 1 0 0
3220 22 1 -0.24256420520298577 -0.08070283019952129 9.606665040700216 0 0 -1
893 6 1 0.3377392575987129 2.139483574864536 11.70464945548967 1 0 0
6486 44 1 0.6581151000011585 3.784192643405281 9.123815644455957 1 0 0
890 6 1 0.3210016754800914 2.4623379103917324 12.481040561406875 1 0 0
892 6 1 0.5682563967723232 2.431946304004156 11.84831754416428 1 0 0
891 6 1 0.4065855569438801 2.6322660437089986 12.149139300106727 1 0 0
895 6 1 0.527621727763238 2.2071198241174095 11.090529508207748 1 0 0
5308 36 1 1.5584991072539784 2.1905672470018343 11.683027830058341 1 1 0
5338 36 1 0.3219476549324245 3.5925744942738143 12.129282593860744 1 1 0
5337 36 1 0.6405414939306348 3.4775678893123567 12.289745620083696 1 1 0
5301 36 1 2.957337668451254 3.307754374598596 11.793995062415012 1 1 0
845 6 1 3.747482784756979 2.155554010266716 11.1237582539015 1 0 0
846 6 1 3.5865299941458026 2.5106116867917705 11.151323396966848 1 0 0
844 6 1 3.575358386224972 1.8430233135415244 10.911559309810228 1 0 0
848 6 1 3.5403550274555107 3.1478182594566353 11.134673013376545 1 0 0
5300 36 1 3.0167832012424576 3.6312030683065672 12.009401351420273 1 1 0