ITEM: TIMESTEP
22990000
ITEM: NUMBER OF ATOMS
9000
ITEM: BOX BOUNDS pp pp pp
3.6042321388874488e-01 1.6149576785892606e+01
3.6042321388874488e-01 1.6149576785892606e+01
3.6042321388874488e-01 1.6149576785892606e+01
ITEM: ATOMS id type c_vo[1] c_vo[2]
23 1 0.375034 13
24 1 0.477765 16
25 1 0.390712 20
8480 1 0.502796 17
3627 1 0.438731 18
22 1 0.526915 17
910 1 0.506925 20
914 1 0.374545 14
26 1 0.393544 16
7287 1 0.389422 17
1140 1 0.436777 17
7256 1 0.382931 17
3156 1 0.422492 14
3155 1 0.441628 16
21 1 0.410218 14
7258 1 0.487461 17
7201 2 0.950896 26
7202 1 0.465506 13
3629 1 0.398567 19
7265 1 0.444897 19
748 1 0.376109 15
7263 1 0.454137 15
7259 1 0.481104 16
7260 1 0.415512 17
7295 1 0.470868 17
7261 1 0.434895 16
7264 1 0.449387 20
7262 1 0.426292 16
6988 1 0.446193 18
3605 1 0.518354 19
3621 1 0.378104 13
7245 1 0.477193 13
909 1 0.501647 16
907 1 0.508817 19
906 1 0.46382 16
908 1 0.375705 12
20 1 0.456152 16
3620 1 0.393964 16
3624 1 0.437198 19
3623 1 0.428717 19
905 1 0.460734 13
904 1 0.418473 20
2785 1 0.386383 15
3622 1 0.413853 15
7353 1 0.437242 15
7354 1 0.489436 15
3619 1 0.398708 18
3618 1 0.349239 15
7352 1 0.504554 16
3617 1 0.427508 19
749 1 0.364237 16
7267 1 0.471518 17
1141 1 0.440357 17
7266 1 0.469261 14
3609 1 0.444588 18
3608 1 0.396308 15
7427 1 0.559533 18
7269 1 0.439113 18
7243 1 0.42845 16
7268 1 0.418534 13
1142 1 0.431585 14
5550 2 0.736378 17
7355 1 0.383203 14
7244 1 0.375434 14
3607 1 0.440907 16
3610 1 0.411793 18
2789 1 0.372875 16
2855 1 0.440575 13
7424 1 0.362883 15
1332 1 0.508326 17
6984 1 0.426109 16
1331 1 0.480241 17
1139 1 0.387647 15
1136 1 0.418715 16
1137 1 0.376393 15
6983 1 0.464635 16
3153 1 0.387988 13
3152 1 0.406027 14
3154 1 0.45681 16
1134 1 0.557846 17
7420 1 0.453266 14
1138 1 0.491054 18
7423 1 0.581741 22
1135 1 0.400589 13
7428 1 0.456956 17
7422 1 0.625394 16
3628 1 0.361079 16
7421 1 0.400045 12
7257 1 0.364975 14
1126 1 0.390276 15
7286 1 0.396047 15
1127 1 0.420751 13
7418 1 0.415848 16
1129 1 0.385982 14
1131 1 0.468539 13
1130 1 0.496362 14
1128 1 0.422775 13
1133 1 0.375439 16
1132 1 0.447912 13
750 2 0.85073 22
4567 1 0.402968 18
1125 1 0.481372 18
7242 1 0.391004 14
3625 1 0.385435 15
3626 1 0.429153 19
2788 1 0.3886 15
2787 1 0.385659 16
2786 1 0.384305 12
7290 1 0.371891 14
7241 1 0.394981 16
3612 1 0.412239 16
7288 1 0.359134 16
7293 1 0.485996 18
7294 1 0.397426 11
7289 1 0.380163 17
911 1 0.466549 15
912 1 0.397615 11
1330 1 0.382124 14
3614 1 0.409839 15
3616 1 0.363705 16
3613 1 0.37822 14
3611 1 0.383961 14
3615 1 0.46566 20
7292 1 0.444329 17
7291 1 0.363109 14
3151 2 0.639731 19
7419 1 0.392681 13
7246 1 0.379479 16
7237 1 0.468635 14
6986 1 0.436498 15
8547 1 0.407734 14
770 1 0.399664 14
8546 1 0.444387 17
784 1 0.43468 15
8548 1 0.42322 16
8545 1 0.398816 15
2857 1 0.450332 19
8549 1 0.445513 15
769 1 0.371625 13
8550 2 0.816741 18
2858 1 0.475191 16
2860 1 0.49557 19
2625 1 0.412864 14
2626 1 0.549541 20
767 1 0.402816 15
2859 1 0.42969 20
1213 1 0.503765 15
7296 1 0.417175 16
205 1 0.448629 16
2663 1 0.444224 16
2637 1 0.438543 18
197 1 0.567427 20
781 1 0.423172 13
2662 1 0.4358 19
1159 1 0.41165 17
1163 1 0.380479 14
1162 1 0.386024 16
1165 1 0.417426 15
1160 1 0.428478 18
1161 1 0.398865 17
1164 1 0.371225 16
1146 1 0.552483 19
1166 1 0.399882 16
2627 1 0.475718 17
1167 1 0.506509 17
1144 1 0.400223 13
1147 1 0.521759 15
1145 1 0.490808 14
1150 1 0.499862 17
1215 1 0.466256 16
1143 1 0.398629 15
1148 1 0.514081 18
8544 1 0.392164 17
8543 1 0.364466 15
2047 1 0.449312 15
2623 1 0.415839 16
5381 1 0.475128 17
8542 1 0.384775 13
2621 1 0.398186 18
5380 1 0.403045 16
2624 1 0.423788 16
2622 1 0.406038 19
5377 1 0.498449 16
5378 1 0.381172 12
5379 1 0.454137 20
5376 1 0.596194 18
7297 1 0.545729 20
7299 1 0.487073 17
7298 1 0.46593 14
204 1 0.466318 15
816 1 0.414125 14
1174 1 0.427452 14
2619 1 0.383307 15
2620 1 0.462452 19
2618 1 0.387877 14
1171 1 0.405031 17
1169 1 0.48818 14
1168 1 0.347407 13
1170 1 0.378981 15
1172 1 0.415715 17
1173 1 0.366647 13
203 1 0.451718 16
2613 1 0.349755 14
2615 1 0.495899 20
2050 1 0.493643 16
1175 1 0.51296 20
2658 1 0.427892 19
1176 1 0.444522 16
775 1 0.464647 13
773 1 0.444766 15
776 1 0.515876 19
774 1 0.371038 14
772 1 0.423544 14
771 1 0.354498 12
201 1 0.573967 17
206 1 0.50672 19
2051 1 0.458625 15
209 1 0.450265 16
2635 1 0.363511 13
212 1 0.385051 15
211 1 0.437535 16
202 1 0.453228 19
207 1 0.436087 13
1149 1 0.47125 17
208 1 0.400876 17
2632 1 0.498926 20
782 1 0.446981 14
2656 1 0.394114 16
196 1 0.625943 18
777 1 0.433344 15
199 1 0.371722 12
1156 1 0.468952 17
1158 1 0.519744 18
824 1 0.392369 16
780 1 0.426215 15
819 1 0.389265 16
2614 1 0.51026 19
2628 1 0.444385 14
2629 1 0.420746 15
2630 1 0.400588 13
2611 1 0.404027 15
821 1 0.390024 13
778 1 0.40642 14
2048 1 0.503918 18
1157 1 0.43591 13
822 1 0.392111 15
2856 1 0.430436 15
1216 1 0.428642 18
823 1 0.404732 15
2631 1 0.437576 16
785 1 0.392844 16
2636 1 0.427948 15
198 1 0.471433 16
2661 1 0.42131 17
2660 1 0.448968 15
8541 1 0.372761 16
8540 1 0.384624 13
8539 1 0.422165 14
8538 1 0.394389 16
8537 1 0.414423 15
5375 1 0.558127 17
210 1 0.401542 16
5374 1 0.457701 14
8533 1 0.381362 17
8535 1 0.407 17
8532 1 0.391324 16
8534 1 0.4142 18
8536 1 0.396699 15
8531 1 0.423205 15
2659 1 0.534859 17
2634 1 0.450254 18
2616 1 0.392982 16
1217 1 0.395173 15
1219 1 0.401958 14
1214 1 0.41543 12
2617 1 0.390711 15
2633 1 0.41276 17
1220 1 0.430826 20
634 1 0.400545 12
633 1 0.464191 16
632 1 0.44235 16
1888 1 0.442013 17
636 1 0.485524 17
628 1 0.539805 20
898 1 0.444429 17
2650 1 0.406499 16
1008 1 0.42043 15
631 1 0.460238 15
630 1 0.381157 13
629 1 0.496202 16
635 1 0.427781 16
2645 1 0.477915 20
2646 1 0.435977 18
830 1 0.374037 14
2638 1 0.435743 14
2644 1 0.408966 16
826 1 0.365409 16
1893 1 0.539618 17
2651 1 0.460299 14
836 1 0.417273 18
833 1 0.429093 17
835 1 0.418994 15
834 1 0.393753 16
832 1 0.388379 15
831 1 0.38733 16
2647 1 0.359614 15
2649 1 0.377509 18
1212 1 0.408663 12
2648 1 0.417072 15
640 1 0.409327 14
626 1 0.412974 16
2652 1 0.501836 21
6484 1 0.404164 17
1204 1 0.390692 12
1203 1 0.449404 17
2655 1 0.459385 16
6483 1 0.422728 18
1206 1 0.385288 14
1205 1 0.39988 14
1202 1 0.455779 17
2653 1 0.365526 17
2657 1 0.490204 14
2654 1 0.413671 15
994 1 0.404391 16
623 1 0.433198 14
1005 1 0.419656 18
627 1 0.377082 15
1884 1 0.475874 17
625 1 0.476645 16
6485 1 0.393985 19
829 1 0.379872 14
637 1 0.50862 19
2643 1 0.404498 17
2640 1 0.390362 14
2641 1 0.420006 14
2642 1 0.42997 16
860 1 0.423584 17
1208 1 0.435628 18
1207 1 0.420416 17
1892 1 0.400665 14
638 1 0.482241 17
8686 1 0.369871 13
996 1 0.359124 13
622 1 0.436489 14
2639 1 0.398684 13
4640 1 0.393008 17
1211 1 0.40971 15
8688 1 0.37558 12
8687 1 0.419406 16
8685 1 0.403508 14
1210 1 0.496032 15
1209 1 0.454489 14
655 1 0.401639 13
897 1 0.460299 18
896 1 0.367493 14
1004 1 0.450368 15
1003 1 0.435927 17
1006 1 0.457416 15
995 1 0.3518 17
1890 1 0.453315 14
1891 1 0.434771 14
1887 1 0.419664 16
1885 1 0.454389 17
1007 1 0.354193 14
1002 1 0.439344 17
1001 1 0.424446 15
899 1 0.504704 16
900 2 0.6363 19
5311 1 0.402498 14
5310 1 0.415149 16
5309 1 0.390312 15
657 1 0.474604 19
1886 1 0.423794 15
639 1 0.600771 18
1883 1 0.428364 13
654 1 0.404961 16
1889 1 0.35811 13
842 1 0.391926 13
839 1 0.344333 15
841 1 0.376537 15
656 1 0.426725 15
840 1 0.428898 15
999 1 0.407775 15
998 1 0.373449 14
1000 1 0.435495 15
997 1 0.385251 16
5305 1 0.350134 14
850 1 0.39202 16
837 1 0.359548 16
838 1 0.376778 14
843 1 0.392211 15
1201 2 0.689876 16
894 1 0.36313 15
3220 1 0.392984 15
893 1 0.37968 17
6486 1 0.412139 21
890 1 0.397714 16
892 1 0.371613 16
891 1 0.358032 18
895 1 0.394711 14
5308 1 0.413879 17
5338 1 0.403773 15
5337 1 0.453634 15
5301 1 0.549911 17
845 1 0.379826 14
846 1 0.423228 17
844 1 0.401402 16
848 1 0.433394 15
5300 1 0.40482 12
849 1 0.380259 17
847 1 0.373868 15
5302 1 0.517791 17
5299 1 0.347411 11
5306 1 0.411547 17
5304 1 0.457205 14
5307 1 0.442761 16
5303 1 0.394209 13
5339 1 0.502858 18
8690 1 0.35166 13
658 1 0.386486 17
4638 1 0.381799 15
4639 1 0.450629 17
4641 1 0.402803 15
825 1 0.382178 14
5321 1 0.443385 14
5322 1 0.365828 16
6583 1 0.464949 15
6584 1 0.384099 14
5323 1 0.397874 15
5324 1 0.341923 14
1881 1 0.475891 16
1876 1 0.336186 13
1882 1 0.479466 18
5319 1 0.459392 16
5320 1 0.364275 16
1877 1 0.431611 15
1878 1 0.431639 16
5316 1 0.370324 14
6582 1 0.458225 15
1879 1 0.417452 18
1880 1 0.45701 14
5312 1 0.376257 14
685 1 0.432458 13
684 1 0.440145 14
691 1 0.500291 18
689 1 0.451063 17
688 1 0.582353 18
692 1 0.408969 16
6403 1 0.442213 18
686 1 0.504537 16
6576 1 0.545121 16
693 1 0.447283 12
687 1 0.46211 15
5336 1 0.409522 15
8642 1 0.411883 16
690 1 0.521068 16
8651 1 0.481616 21
8650 1 0.433732 17
5326 1 0.380935 14
5325 1 0.365593 17
5332 1 0.532126 17
5331 1 0.428187 15
8649 1 0.43643 17
8648 1 0.353985 14
8652 1 0.399573 12
8647 1 0.413597 15
5333 1 0.453335 13
5327 1 0.479594 18
1981 1 0.409955 15
5330 1 0.438972 18
5328 1 0.422883 16
5334 1 0.404962 14
8645 1 0.412411 17
8483 1 0.529582 17
887 1 0.351012 14
8646 1 0.4135 18
5329 1 0.416592 13
3276 1 0.388049 15
991 1 0.522701 16
3603 1 0.565303 21
694 1 0.52311 17
987 1 0.430524 15
988 1 0.440846 14
990 1 0.497936 14
989 1 0.421909 19
8653 1 0.3574 11
8654 1 0.514 18
3291 1 0.493151 17
992 1 0.462419 18
8656 1 0.563275 20
8655 1 0.37058 13
8657 1 0.470562 16
5317 1 0.416627 17
6577 1 0.397898 13
1875 1 0.446023 16
1874 1 0.380052 14
6579 1 0.376328 14
6581 1 0.513464 16
18 1 0.498494 20
1975 1 0.367297 14
1870 1 0.409507 17
1871 1 0.386981 15
17 1 0.412167 16
19 1 0.427892 15
6580 1 0.381459 13
889 1 0.351376 17
6578 1 0.476791 19
1872 1 0.421764 15
16 1 0.387701 14
15 1 0.428289 19
1978 1 0.413988 16
5315 1 0.379861 14
8482 1 0.426389 16
1873 1 0.423167 16
3279 1 0.417756 14
3282 1 0.354542 16
3281 1 0.412246 16
3283 1 0.420515 17
3284 1 0.354168 14
3277 1 0.388693 14
3280 1 0.399493 15
3601 2 0.804812 22
8643 1 0.380048 14
888 1 0.400477 16
3278 1 0.41527 15
1974 1 0.357817 14
1976 1 0.360249 15
1982 1 0.429607 16
1977 1 0.372526 15
3292 1 0.387635 13
8644 1 0.389858 15
6566 1 0.441315 17
901 2 0.707508 19
993 1 0.407216 17
11 1 0.380098 17
13 1 0.396639 16
12 1 0.40935 15
10 1 0.516887 14
9 1 0.442593 15
14 1 0.455959 16
1869 1 0.404496 14
683 1 0.441651 15
902 1 0.495995 14
6565 1 0.408446 15
1983 1 0.413437 15
8661 1 0.438893 16
1979 1 0.398638 14
8659 1 0.534454 18
8658 1 0.457525 15
8660 1 0.48423 17
1 2 0.720995 20
3288 1 0.384556 13
1980 1 0.459722 16
3 1 0.494549 17
3289 1 0.434836 14
3286 1 0.464521 16
3287 1 0.473447 16
3285 1 0.462843 16
5335 1 0.382926 12
747 1 0.372502 15
5314 1 0.351315 15
6586 1 0.462757 14
6402 1 0.489585 16
3293 1 0.426482 14
903 1 0.558173 21
3290 1 0.393734 14
5313 1 0.376317 16
653 1 0.431204 15
5318 1 0.379199 14
986 1 0.432692 17
5 1 0.478587 15
2 1 0.393063 18
682 1 0.396458 14
5582 1 0.50179 21
5580 1 0.354915 13
5581 1 0.479924 15
5686 1 0.380857 15
5577 1 0.461015 18
2798 1 0.373693 17
5576 1 0.374873 11
5575 1 0.48324 15
5584 1 0.410661 14
5579 1 0.495247 14
2795 1 0.402764 14
2797 1 0.411455 16
5571 1 0.384844 15
5573 1 0.45657 13
5574 1 0.411593 18
5572 1 0.474608 16
6987 1 0.418504 13
5583 1 0.436294 18
6903 1 0.443214 18
6962 1 0.394371 15
2801 1 0.402261 18
6906 1 0.401503 14
7307 1 0.424792 16
2079 1 0.405157 17
2080 1 0.40068 12
7315 1 0.45751 14
4688 1 0.452583 16
6904 1 0.425715 14
4685 1 0.416236 12
6901 2 0.764769 24
5578 1 0.410382 18
6972 1 0.536582 19
2802 1 0.382138 17
5679 1 0.471939 20
5680 1 0.564119 18
2799 1 0.420953 17
4686 1 0.419288 14
5681 1 0.464064 21
5682 1 0.426813 13
5683 1 0.465565 15
7343 1 0.39808 18
6974 1 0.497482 17
7342 1 0.359314 14
7341 1 0.39112 16
7340 1 0.379441 17
7339 1 0.396977 16
7337 1 0.425681 16
7336 1 0.376583 20
7338 1 0.358243 17
4684 1 0.457023 17
6971 1 0.645744 20
6973 1 0.422226 14
2803 1 0.369598 17
7272 1 0.372646 15
2081 1 0.501346 16
2083 1 0.405843 13
2078 1 0.425201 17
2082 1 0.368381 14
2076 1 0.458932 14
7332 1 0.364553 17
7330 1 0.374298 14
7333 1 0.427286 15
7331 1 0.419119 16
7335 1 0.424059 15
7334 1 0.355467 14
7329 1 0.407438 13
2077 1 0.38154 15
7328 1 0.425687 18
6905 1 0.463862 16
4689 1 0.376105 15
7271 1 0.367216 14
2790 1 0.376233 15
5684 1 0.382009 15
2794 1 0.379364 16
2796 1 0.387775 17
2793 1 0.393468 15
2791 1 0.376905 14
2792 1 0.387142 15
5568 1 0.412221 15
5569 1 0.399646 18
5570 1 0.398291 14
5566 1 0.461592 16
5567 1 0.40357 15
5385 1 0.447643 17
5387 1 0.4228 21
7308 1 0.441763 15
5386 1 0.394209 15
2072 1 0.466259 16
2075 1 0.428381 18
6976 1 0.54631 19
6975 1 0.383235 13
2074 1 0.578792 17
7309 1 0.404813 16
7310 1 0.455336 16
6977 1 0.435254 17
6980 1 0.473392 18
6978 1 0.429052 15
6979 1 0.428283 13
6981 1 0.383309 14
6982 1 0.435453 16
2069 1 0.366276 14
2073 1 0.493018 17
2071 1 0.369526 14
2070 1 0.484894 16
7311 1 0.443151 14
7312 1 0.478291 18
7314 1 0.394544 12
6968 1 0.41408 13
6967 1 0.426523 14
6963 1 0.452401 19
6902 1 0.471997 17
5565 1 0.378339 14
4687 1 0.462262 14
6970 1 0.389498 14
6969 1 0.52739 21
6965 1 0.40535 13
6966 1 0.540773 19
6964 1 0.410624 14
7313 1 0.468311 16
7344 1 0.365243 14
2800 1 0.386081 18
7270 1 0.407136 15
7275 1 0.423005 15
7273 1 0.418529 17
7274 1 0.44107 17
1329 1 0.381368 16
7345 1 0.403288 15
3298 1 0.375339 13
3299 1 0.404143 15
6985 1 0.527337 19
913 1 0.615676 21
1226 1 0.451447 17
1225 1 0.448803 18
1224 1 0.490102 16
7303 1 0.425865 15
6510 1 0.404523 16
6504 1 0.487012 13
3150 2 0.610189 17
1223 1 0.372996 13
153 1 0.509594 18
7302 1 0.514903 15
1240 1 0.358195 13
6473 1 0.40141 15
152 1 0.496984 17
6527 1 0.408184 15
1227 1 0.368227 14
155 1 0.402603 15
7301 1 0.457963 18
1229 1 0.495482 23
157 1 0.372871 16
6525 1 0.404739 15
7304 1 0.725058 20
7305 1 0.566713 17
154 1 0.406005 15
151 2 0.822986 18
4201 2 0.814284 20
1296 1 0.491918 16
1295 1 0.392317 14
1328 1 0.358096 12
6523 1 0.410246 16
1292 1 0.394947 18
1327 1 0.524481 17
5383 1 0.388405 17
1177 1 0.385658 14
1326 1 0.384901 14
1297 1 0.490327 16
1236 1 0.435204 15
1293 1 0.415581 15
1294 1 0.451808 17
6526 1 0.380394 14
1409 1 0.481907 18
1408 1 0.385252 14
1406 1 0.384716 16
1407 1 0.520755 15
1231 1 0.393357 15
6507 1 0.413742 12
6505 1 0.435995 18
1405 1 0.49172 16
1404 1 0.433693 17
1232 1 0.402497 16
6530 1 0.484317 14
1284 1 0.389576 14
1285 1 0.472343 17
1291 1 0.402374 16
1289 1 0.388659 17
1290 1 0.382104 15
1287 1 0.425796 15
1288 1 0.360347 14
6506 1 0.543502 14
1286 1 0.388565 16
6501 1 0.447763 18
1237 1 0.380917 14
6502 1 0.463375 14
6503 1 0.405687 14
8530 1 0.390374 16
5372 1 0.429661 14
1228 1 0.422339 19
5371 1 0.48461 14
160 1 0.473549 18
4203 1 0.450649 17
5370 1 0.398538 15
6496 1 0.432257 15
6524 1 0.437222 18
1222 1 0.450776 15
5367 1 0.361269 13
5366 1 0.38529 14
5368 1 0.439317 17
5369 1 0.389772 15
1230 1 0.390065 17
159 1 0.423218 15
6500 1 0.447017 17
6528 1 0.378516 18
1304 1 0.374361 16
1410 1 0.437057 15
6508 1 0.434428 14
1301 1 0.480964 18
6522 1 0.358713 15
1303 1 0.391643 17
6499 1 0.49382 16
1302 1 0.485033 19
1299 1 0.496142 18
1298 1 0.435026 15
1300 1 0.447895 15
6497 1 0.574721 18
6498 1 0.420356 14
1411 1 0.402216 19
5361 1 0.443271 15
5362 1 0.390774 14
1233 1 0.360329 13
1397 1 0.488575 18
7300 1 0.493247 14
1234 1 0.437506 13
5363 1 0.455575 18
5360 1 0.398759 14
1238 1 0.37443 11
6509 1 0.413013 15
6529 1 0.443242 18
5365 1 0.459358 18
1235 1 0.356491 12
1239 1 0.39338 15
1403 1 0.44428 17
5384 1 0.372898 14
5364 1 0.408556 13
1241 1 0.408202 13
156 1 0.480061 17
3148 1 0.352992 14
1178 1 0.405754 15
1179 1 0.37637 16
158 1 0.439224 16
8529 1 0.436154 16
6471 1 0.363812 16
6521 1 0.356574 14
6511 1 0.436427 16
6531 1 0.454226 16
6472 1 0.422673 16
4202 1 0.433981 13
8528 1 0.384669 15
2542 1 0.405407 15
3149 1 0.438844 16
5382 1 0.435978 16
5373 1 0.465516 15
7306 1 0.366092 15
6469 1 0.361067 15
1221 1 0.373528 17
1218 1 0.389858 12
8524 1 0.373089 14
6464 1 0.570169 24
8525 1 0.490146 21
6465 1 0.46808 18
605 1 0.43994 18
8700 2 0.682177 16
6467 1 0.409355 15
6462 1 0.346691 14
6463 1 0.390979 11
6460 1 0.474077 13
4644 1 0.363559 16
6461 1 0.381748 16
8693 1 0.418438 18
6487 1 0.421333 14
6466 1 0.460591 14
604 1 0.500912 13
8527 1 0.444464 15
6488 1 0.419441 17
8526 1 0.403163 15
8522 1 0.378654 14
6455 1 0.486038 15
6459 1 0.366449 15
1243 1 0.43376 16
6458 1 0.382287 14
6490 1 0.437794 14
6489 1 0.466155 18
6456 1 0.43414 17
1245 1 0.484647 17
1244 1 0.480793 17
1247 1 0.453151 14
1246 1 0.424124 15
851 1 0.404489 16
6454 1 0.456859 16
8691 1 0.381584 15
6491 1 0.573287 17
983 1 0.470176 14
6457 1 0.373919 13
5340 1 0.426598 17
4642 1 0.383869 15
5359 1 0.389136 16
6550 1 0.466598 16
603 1 0.453996 14
6468 1 0.472574 18
5356 1 0.493549 15
5357 1 0.407633 17
5358 1 0.410795 13
5355 1 0.402014 16
6541 1 0.529696 15
601 2 0.849541 21
602 1 0.464298 14
1650 2 0.77405 26
3874 1 0.35453 15
1250 1 0.560292 18
6533 1 0.42746 14
6540 1 0.447024 13
6536 1 0.41252 17
6538 1 0.3828 14
6539 1 0.389243 15
6534 1 0.411475 15
1242 1 0.395714 14
6537 1 0.547489 21
1248 1 0.442203 16
6535 1 0.404792 15
1249 1 0.493046 17
1259 1 0.496884 20
8697 1 0.418913 15
8698 1 0.404255 13
138 1 0.423476 16
8699 1 0.508746 20
1253 1 0.406917 13
8696 1 0.391775 14
8694 1 0.366742 14
5343 1 0.456321 12
865 1 0.397731 17
863 1 0.40058 16
8695 1 0.404954 14
5342 1 0.43506 17
862 1 0.433364 14
861 1 0.413726 15
864 1 0.45759 16
866 1 0.394566 13
867 1 0.388483 17
5101 2 0.809519 23
868 1 0.434987 13
606 1 0.386664 12
5103 1 0.475208 13
855 1 0.409197 15
6493 1 0.486623 16
853 1 0.40914 15
4645 1 0.449285 16
858 1 0.418249 17
859 1 0.450086 14
856 1 0.428961 16
854 1 0.404551 18
5102 1 0.547621 14
857 1 0.436334 17
8689 1 0.400289 17
980 1 0.498104 16
981 1 0.365037 12
6549 1 0.394832 17
6495 1 0.476987 14
6543 1 0.441547 15
977 1 0.417201 13
6542 1 0.483233 15
4643 1 0.417736 12
7501 2 0.67439 23
3875 1 0.432925 18
6544 1 0.412948 16
976 1 0.474417 18
982 1 0.47083 15
1645 1 0.716503 22
6545 1 0.382213 17
872 1 0.437609 15
134 1 0.480986 14
6548 1 0.400834 15
6546 1 0.414667 16
6547 1 0.415096 16
979 1 0.475209 15
1258 1 0.52078 16
944 1 0.410933 13
5108 1 0.466958 12
946 1 0.435242 15
1257 1 0.414944 13
6494 1 0.451516 14
1255 1 0.396143 14
1251 1 0.531889 16
6470 1 0.431114 18
5107 1 0.398122 11
1254 1 0.460707 17
1256 1 0.506098 14
5341 1 0.435446 13
948 1 0.436015 13
1252 1 0.430287 13
5106 1 0.565762 19
5105 1 0.412787 12
5104 1 0.382856 13
8523 1 0.347925 15
6492 1 0.368938 12
136 1 0.462064 16
6532 1 0.467598 16
6551 1 0.459118 13
869 1 0.432551 15
852 1 0.392519 19
8692 1 0.362715 13
139 1 0.450539 18
5354 1 0.466235 16
870 1 0.483842 18
978 1 0.547004 15
4646 1 0.363464 14
140 1 0.548022 17
5352 1 0.470001 17
949 1 0.494121 15
5298 1 0.484362 15
6558 1 0.654305 16
5661 1 0.426778 18
6561 1 0.519812 16
6559 1 0.472508 15
6560 1 0.633593 18
6562 1 0.485362 12
6555 1 0.526214 17
5659 1 0.445422 14
5660 1 0.478635 16
5658 1 0.361795 14
5662 1 0.488769 16
6552 1 0.410846 13
5657 1 0.436424 17
6553 1 0.528255 17
6563 1 0.516165 16
5664 1 0.486819 14
5663 1 0.5165 16
5656 1 0.353379 16
5655 1 0.411042 19
5258 1 0.398847 15
5257 1 0.370914 13
6556 1 0.416378 15
6557 1 0.462831 16
6554 1 0.461391 19
5294 1 0.489155 14
7 1 0.506389 15
5291 1 0.472283 18
6429 1 0.443203 14
6430 1 0.544325 19
5290 1 0.453158 15
5289 1 0.413577 14
6431 1 0.47154 17
5288 1 0.423907 15
7548 1 0.4234 16
5292 1 0.424685 14
975 1 0.355385 14
969 1 0.396724 12
746 1 0.485323 18
5293 1 0.544745 15
7622 1 0.456448 14
5295 1 0.525245 14
984 1 0.418806 11
937 1 0.470096 19
873 1 0.471227 16
5280 1 0.409194 14
5277 1 0.421636 16
5278 1 0.407681 18
5279 1 0.391955 15
5276 1 0.355892 13
940 1 0.409742 17
6439 1 0.370705 14
3297 1 0.472765 17
6440 1 0.473231 14
939 1 0.467356 16
936 1 0.360778 11
941 1 0.446556 18
938 1 0.449686 13
7621 1 0.543507 19
4 1 0.481871 17
970 1 0.493222 17
6432 1 0.472467 13
6433 1 0.432597 15
972 1 0.482674 18
942 1 0.47212 16
971 1 0.39012 14
5260 1 0.376258 16
6434 1 0.400373 13
6437 1 0.446152 16
974 1 0.428194 14
947 1 0.461934 17
973 1 0.44019 14
6435 1 0.423691 14
943 1 0.479474 14
6436 1 0.474261 14
6438 1 0.566329 16
985 1 0.484784 16
5297 1 0.441354 19
5259 1 0.415695 16
931 1 0.43326 19
7623 1 0.389773 15
5672 1 0.470693 14
8 1 0.480303 16
3295 1 0.547151 20
6442 1 0.455671 14
5666 1 0.40065 16
5665 1 0.449077 15
5669 1 0.438128 17
5668 1 0.477319 19
5670 1 0.538488 19
5667 1 0.44354 14
5671 1 0.435376 16
6446 1 0.504508 15
7624 1 0.425316 15
7627 1 0.378634 15
741 1 0.363613 16
6426 1 0.488851 17
5287 1 0.552454 18
5286 1 0.370693 13
5285 1 0.549238 16
745 1 0.39225 17
3300 2 0.763973 25
744 1 0.42273 17
743 1 0.378304 17
7626 1 0.382591 15
930 1 0.460654 14
7547 1 0.388172 12
742 1 0.350336 13
740 1 0.414173 16
5296 1 0.481992 16
739 1 0.375505 16
5282 1 0.450248 16
3296 1 0.426039 13
5674 1 0.37957 12
5281 1 0.463564 13
5675 1 0.382862 13
7546 1 0.467348 16
5673 1 0.418051 16
5272 1 0.374074 17
5677 1 0.442061 20
5275 1 0.41751 17
5274 1 0.363943 14
5273 1 0.345337 13
5271 1 0.353521 14
5270 1 0.367248 17
5676 1 0.360511 14
5678 1 0.433938 15
2091 1 0.408422 15
5283 1 0.455658 15
5284 1 0.605327 21
6441 1 0.402774 14
966 1 0.338866 16
5263 1 0.378469 15
2092 1 0.385965 15
2085 1 0.497982 16
2086 1 0.428571 16
6427 1 0.474429 21
2089 1 0.501159 18
5267 1 0.371941 12
2088 1 0.478013 17
2087 1 0.510369 17
933 1 0.439665 15
5269 1 0.388942 14
5268 1 0.371055 17
2093 1 0.487195 14
6564 1 0.486427 21
2090 1 0.427759 16
6 1 0.450136 14
2084 1 0.470835 16
6428 1 0.430913 13
924 1 0.435177 13
738 1 0.423087 16
6424 1 0.583993 19
3294 1 0.362212 11
945 1 0.413035 17
5654 1 0.424697 16
6444 1 0.476089 21
5256 1 0.416617 16
2094 1 0.496589 15
5261 1 0.437201 19
7625 1 0.399556 16
5255 1 0.399681 15
7537 1 0.38369 11
7536 1 0.391633 14
7538 1 0.43136 17
6925 1 0.491771 21
6924 1 0.483402 15
4705 1 0.376389 15
5685 1 0.464767 14
6919 1 0.42468 17
6923 1 0.445855 17
6922 1 0.399887 13
6921 1 0.432347 17
4706 1 0.397699 14
7539 1 0.425455 15
7857 1 0.482557 16
5688 1 0.40452 12
5689 1 0.442204 12
4652 1 0.441109 15
8241 1 0.490189 19
6926 1 0.440605 14
7346 1 0.376635 15
7867 1 0.423476 14
8240 1 0.45317 15
7535 1 0.467565 14
5687 1 0.418865 13
4680 1 0.45159 18
4677 1 0.368158 14
4679 1 0.442744 13
4678 1 0.457773 19
4676 1 0.531881 18
4675 1 0.429646 15
7534 1 0.396176 18
4707 1 0.371375 17
1719 1 0.451536 17
5698 1 0.399332 14
4699 1 0.382462 17
6911 1 0.464687 16
1850 1 0.466241 19
6931 1 0.447441 16
4651 2 0.676567 18
1848 1 0.449497 14
6896 1 0.398688 16
1846 1 0.56544 19
1845 1 0.419285 16
6927 1 0.493874 19
6929 1 0.483393 17
7858 1 0.518326 18
6928 1 0.428537 16
5700 2 0.688171 18
1844 1 0.479676 18
6895 1 0.385509 12
1849 1 0.42523 15
6930 1 0.420768 13
1847 1 0.443794 16
4700 1 0.425273 17
1052 1 0.468226 16
4654 1 0.395015 14
6912 1 0.433515 13
1852 1 0.432128 17
6910 1 0.458343 14
6893 1 0.554377 17
4672 1 0.544899 20
7860 1 0.446616 13
4673 1 0.51262 17
7866 1 0.433723 14
6907 1 0.41678 16
4674 1 0.422474 15
1435 1 0.426507 15
6899 1 0.360775 16
1433 1 0.421703 12
6892 1 0.503557 18
1437 1 0.497191 17
4653 1 0.449054 16
1851 1 0.431282 14
7856 1 0.465534 15
5699 1 0.406564 15
6920 1 0.496164 18
1720 1 0.402438 14
4697 1 0.401011 18
5695 1 0.395166 16
5694 1 0.402992 15
5691 1 0.346921 12
5693 1 0.353032 15
5692 1 0.375126 15
5690 1 0.432484 13
5696 1 0.446982 19
7862 1 0.403295 17
6960 1 0.400003 15
7865 1 0.465564 17
7863 1 0.430105 19
6961 1 0.474982 17
7864 1 0.419848 16
5697 1 0.392352 16
6898 1 0.415019 16
6918 1 0.420191 18
4681 1 0.453565 14
4682 1 0.447127 13
4683 1 0.502072 18
6909 1 0.393006 17
6917 1 0.468757 19
4703 1 0.379137 15
6915 1 0.359653 12
6916 1 0.50842 18
6914 1 0.42936 14
4702 1 0.416029 16
1434 1 0.507875 19
6913 1 0.428475 14
1051 2 0.703755 19
4708 1 0.379528 14
4701 1 0.37849 16
6908 1 0.49793 16
6900 2 0.728525 25
1432 1 0.45338 19
1426 1 0.555717 16
1425 1 0.352877 15
1424 1 0.416146 17
1431 1 0.50339 16
1430 1 0.435439 15
1429 1 0.415052 14
1427 1 0.499764 16
1428 1 0.388558 15
7861 1 0.455962 15
4704 1 0.431781 16
6894 1 0.419826 16
6897 1 0.408054 20
7859 1 0.518759 15
4698 1 0.380714 15
6958 1 0.394979 14
1436 1 0.432825 18
1417 1 0.435493 13
1416 1 0.4155 15
8146 1 0.419172 13
7871 1 0.51883 19
7873 1 0.424387 15
1413 1 0.438966 19
1415 1 0.489233 17
1418 1 0.420105 18
7872 1 0.455117 13
1414 1 0.406273 14
7870 1 0.495026 19
7875 1 0.431965 20
1708 1 0.413849 13
1709 1 0.456069 14
4206 1 0.439967 18
7869 1 0.404918 14
1710 1 0.48108 15
1412 1 0.421164 18
4897 1 0.44191 15
7874 1 0.456914 20
7868 1 0.476164 14
4721 1 0.358805 15
4722 1 0.398432 13
4723 1 0.375102 16
1283 1 0.447556 16
1282 1 0.424669 12
1711 1 0.437028 13
4208 1 0.434568 15
4724 1 0.41869 13
8168 1 0.577595 18
4725 1 0.370586 15
1281 1 0.441936 14
8155 1 0.485894 19
1419 1 0.422351 18
1401 1 0.379752 17
1420 1 0.466784 16
1699 1 0.456459 16
300 2 1.07784 27
1421 1 0.397681 16
8154 1 0.459188 19
7851 1 0.431304 15
8153 1 0.414627 15
8158 1 0.414593 15
8157 1 0.362458 12
1717 1 0.498979 17
1423 1 0.36721 14
8152 1 0.447716 15
8151 1 0.423842 15
8156 1 0.390531 17
1402 1 0.40139 15
1400 1 0.393092 13
4893 1 0.435452 18
4720 1 0.395286 14
4718 1 0.390303 14
4719 1 0.382501 16
4717 1 0.389118 16
1715 1 0.475229 14
1714 1 0.423063 15
1712 1 0.406894 14
1713 1 0.426101 14
7855 1 0.467224 17
7854 1 0.433839 16
7852 1 0.366682 14
7849 1 0.446227 16
1422 1 0.419273 14
1716 1 0.355991 14
7853 1 0.449507 15
1705 1 0.525557 18
4714 1 0.358407 12
7883 1 0.416709 16
7882 1 0.355637 13
8170 1 0.565733 13
6959 1 0.466101 18
8167 1 0.463462 16
7876 1 0.3962 16
4898 1 0.382339 12
7879 1 0.348268 12
1704 1 0.346449 13
7880 1 0.392023 16
7881 1 0.565041 19
7884 1 0.431483 14
7850 1 0.496469 18
7878 1 0.395243 17
4205 1 0.405806 16
1275 1 0.488081 20
4207 1 0.408034 16
4710 1 0.380085 15
1276 1 0.442487 15
1272 1 0.37921 14
1280 1 0.409154 14
1273 1 0.428391 17
1274 1 0.417765 15
1279 1 0.395283 15
1278 1 0.424465 14
1277 1 0.380325 13
7877 1 0.431084 17
4713 1 0.394345 16
8145 1 0.45909 13
4712 1 0.373247 12
4204 1 0.441219 17
4890 1 0.356669 16
1706 1 0.361391 15
1707 1 0.378627 15
298 1 0.571875 19
299 1 0.424004 15
297 1 0.390152 11
295 1 0.444295 12
294 1 0.390156 16
296 1 0.434974 16
1703 1 0.523891 20
1702 1 0.393354 15
1695 1 0.738729 19
1701 1 0.409627 11
8174 1 0.399743 16
4716 1 0.369082 12
293 1 0.536874 17
4715 1 0.383259 16
1696 1 0.456287 14
1697 1 0.369274 18
1700 1 0.403567 17
8169 1 0.434693 17
4895 1 0.392632 17
4896 1 0.468548 17
4894 1 0.417186 15
1698 1 0.585435 15
1271 1 0.410583 11
1718 1 0.437274 15
8171 1 0.420612 17
8172 1 0.437845 16
8147 1 0.48067 15
7885 1 0.472211 20
8148 1 0.404307 12
1268 1 0.498194 13
1267 1 0.472538 16
131 1 0.458831 17
1269 1 0.460131 16
130 1 0.407955 14
7888 1 0.41497 19
129 1 0.433367 16
128 1 0.474027 16
1270 1 0.436042 17
1946 1 0.387972 18
144 1 0.459737 15
124 1 0.353824 15
127 1 0.465603 19
125 1 0.484448 13
126 1 0.491015 18
7887 1 0.47697 15
7886 1 0.408682 16
133 1 0.388508 9
8119 1 0.430754 14
132 1 0.366996 17
1263 1 0.566893 21
1262 1 0.388344 14
1264 1 0.372007 10
1266 1 0.520559 19
1265 1 0.54067 18
1944 1 0.410738 14
8193 1 0.392175 15
7656 1 0.449782 14
8195 1 0.43537 18
8194 1 0.41507 15
8192 1 0.396884 14
7655 1 0.699116 20
143 1 0.409406 14
4921 1 0.439306 16
4919 1 0.461373 14
142 1 0.540769 18
113 1 0.443335 15
4918 1 0.401076 17
7503 1 0.481608 18
7653 1 0.566817 16
7652 1 0.472913 14
146 1 0.437996 17
114 1 0.394691 12
115 1 0.450678 13
116 1 0.416683 13
117 1 0.568018 19
118 1 0.419678 13
7890 1 0.39323 16
954 1 0.41714 14
8176 1 0.489026 16
8177 1 0.392678 14
4874 1 0.439963 15
119 1 0.537416 21
121 1 0.451292 15
120 1 0.392352 15
8175 1 0.358605 12
7958 1 0.418761 15
7654 1 0.583761 13
950 1 0.580734 18
4885 1 0.401423 16
4889 1 0.401491 17
1644 1 0.445254 14
1261 1 0.406644 11
147 1 0.525617 17
8183 1 0.456384 18
8184 1 0.390768 15
4888 1 0.404305 17
5248 1 0.362265 15
149 1 0.496081 19
150 2 0.686181 20
8187 1 0.452668 15
8186 1 0.375836 13
8188 1 0.38827 13
8182 1 0.426774 16
8185 1 0.41152 16
4886 1 0.460611 14
148 1 0.435111 16
8181 1 0.460698 12
5249 1 0.422921 16
8179 1 0.495249 16
135 1 0.421585 15
8178 1 0.515815 14
145 1 0.414366 16
8180 1 0.513219 15
8392 1 0.389217 17
141 1 0.505035 18
4875 1 0.377543 14
8118 1 0.403835 16
4873 1 0.463279 18
8116 1 0.473059 17
8117 1 0.393787 11
7506 1 0.501879 19
7889 1 0.395545 15
7507 1 0.443127 16
7508 1 0.447719 16
123 1 0.465625 14
7505 1 0.379019 14
7509 1 0.441627 16
8114 1 0.422371 17
7513 1 0.480837 18
7510 1 0.453053 16
7511 1 0.571931 16
122 1 0.369039 13
7512 1 0.642971 20
4920 1 0.402526 16
8115 1 0.501329 23
8113 1 0.49418 16
7502 1 0.388922 13
4887 1 0.358844 14
8191 1 0.458139 15
8190 1 0.41092 15
1948 1 0.440268 16
1950 2 0.727232 20
1947 1 0.383769 15
1648 1 0.550447 14
951 1 0.420537 13
952 1 0.504656 16
953 1 0.525677 19
7960 1 0.368038 14
4872 1 0.424665 14
7657 1 0.458099 17
1643 1 0.419588 16
7651 2 0.75215 21
1260 1 0.658593 20
4917 1 0.425032 14
7954 1 0.421451 16
1647 1 0.829063 21
7504 1 0.428717 16
1642 1 0.577904 21
4916 1 0.40667 18
7959 1 0.414464 16
1943 1 0.396021 20
1945 1 0.361654 16
1646 1 0.31731 12
8189 1 0.459339 15
7956 1 0.450065 13
1949 1 0.483219 17
7957 1 0.446775 14
5250 2 0.715255 22
7955 1 0.458812 15
8112 1 0.469404 18
7891 1 0.471224 17
8395 1 0.367441 14
7514 1 0.427153 13
955 1 0.444693 19
1942 1 0.492598 18
8394 1 0.410204 16
5247 1 0.408856 16
1649 1 0.395708 18
7953 1 0.458005 14
8393 1 0.408823 18
137 1 0.434096 13
8173 1 0.378439 14
4884 1 0.379405 14
7518 1 0.461049 16
7520 1 0.419369 14
7523 1 0.440891 15
598 1 0.402322 17
7517 1 0.420858 13
5843 1 0.389502 14
8245 1 0.477565 16
6445 1 0.445323 17
7522 1 0.39484 15
7521 1 0.441944 16
7519 1 0.4188 17
2847 1 0.439656 14
7516 1 0.452339 15
2848 1 0.399194 12
963 1 0.530707 19
2845 1 0.468373 15
597 1 0.459277 15
7545 1 0.559512 20
7515 1 0.488915 14
599 1 0.44199 14
596 1 0.471287 17
1472 1 0.397347 15
8821 1 0.417291 16
8111 1 0.568558 20
961 1 0.387374 17
956 1 0.397558 16
5842 1 0.411098 16