ITEM: TIMESTEP
22990000
ITEM: NUMBER OF ATOMS
9000
ITEM: BOX BOUNDS pp pp pp
3.6042321388874488e-01 1.6149576785892606e+01
3.6042321388874488e-01 1.6149576785892606e+01
3.6042321388874488e-01 1.6149576785892606e+01
ITEM: ATOMS id mol x y z ix iy iz type
1873 13 0.551151 0.733864 1.70221 1 0 0 1
6476 44 2.02635 0.980647 0.949296 1 0 1 1
6475 44 1.75698 1.1308 1.19743 1 0 1 1
6474 44 1.93523 1.35622 1.46298 1 0 1 1
8518 57 1.30412 1.87301 0.773709 1 1 1 1
3751 26 2.71671 0.566358 2.20003 0 0 0 2
6473 44 1.7016 1.4912 1.75048 1 0 1 1
1859 13 1.76043 0.667943 3.67683 1 0 0 1
6472 44 1.8948 1.69727 2.01791 1 0 1 1
1874 13 0.56105 0.567202 1.36005 1 0 0 1
7255 49 2.80178 2.69068 2.38393 0 1 1 1
1871 13 0.57801 1.32337 2.00808 1 0 0 1
5666 38 0.451621 4.10018 1.97044 1 1 1 1
6471 44 1.66763 1.87888 2.27072 1 0 1 1
911 7 3.74956 3.1106 3.0118 1 -1 -1 1
5589 38 2.56965 2.09684 1.39297 1 1 1 1
1027 7 3.4897 1.5277 1.32053 1 -1 -1 1
1026 7 3.8546 1.6145 1.23703 1 -1 -1 1
1028 7 3.43178 1.13306 1.28645 1 -1 -1 1
1025 7 3.96637 1.96569 1.34023 1 -1 -1 1
5590 38 2.74327 1.95037 1.07843 1 1 1 1
6478 44 2.45543 0.432575 0.991935 1 0 1 1
1029 7 3.70484 0.93187 1.5055 1 -1 -1 1
1024 7 3.80072 2.28571 1.16522 1 -1 -1 1
1023 7 3.9305 2.35671 0.799116 1 -1 -1 1
4966 34 1.56054 0.785513 2.60269 1 1 -1 1
5665 38 0.816217 4.03287 1.83266 1 1 1 1
3765 26 2.73149 4.10836 3.50463 0 0 0 1
8517 57 1.27465 2.2084 0.959271 1 1 1 1
8516 57 1.16242 2.16872 1.32136 1 1 1 1
5582 38 2.63147 4.07223 1.00627 1 1 1 1
5592 38 2.65616 1.74009 0.458727 1 1 1 1
3762 26 2.68711 3.11816 3.48109 0 0 0 1
8515 57 1.15987 2.49348 1.50369 1 1 1 1
8514 57 1.05652 2.46896 1.86958 1 1 1 1
8513 57 1.05321 2.83409 2.02277 1 1 1 1
5660 38 1.39647 3.39349 1.01658 1 1 1 1
5658 38 1.52446 3.00604 0.515831 1 1 1 1
5661 38 1.43245 3.71336 0.795739 1 1 1 1
7260 49 1.94441 3.74172 2.64463 0 1 1 1
5662 38 1.17312 3.99782 0.899597 1 1 1 1
5663 38 1.20247 4.04831 1.2831 1 1 1 1
910 7 3.97866 3.01328 3.29989 1 -1 -1 1
1032 7 4.09242 0.413229 1.04958 1 -1 -1 1
5588 38 2.4342 2.46404 1.32248 1 1 1 1
2099 14 1.06098 0.686742 0.456933 0 1 1 1
5587 38 2.74209 2.70545 1.23911 1 1 1 1
1021 7 3.35647 2.44864 0.562194 1 -1 -1 1
4965 34 1.42594 0.628135 2.26956 1 1 -1 1
1022 7 3.70924 2.61493 0.61123 1 -1 -1 1
5586 38 2.64797 3.07463 1.34326 1 1 1 1
5583 38 2.61024 3.90796 1.36273 1 1 1 1
5585 38 2.92408 3.34481 1.22976 1 1 1 1
5584 38 2.92533 3.67633 1.4458 1 1 1 1
1872 13 0.569831 1.11574 1.65898 1 0 0 1
915 7 3.06858 3.84248 2.36628 1 -1 -1 1
1030 7 3.63199 0.539662 1.50517 1 -1 -1 1
914 7 3.27205 3.64439 2.63617 1 -1 -1 1
907 7 3.99893 2.65068 4.02869 1 -1 -1 1
1867 13 0.593111 2.01282 2.8902 1 0 0 1
1870 13 0.512932 1.70408 1.95546 1 0 0 1
1860 13 1.52195 0.930149 3.85066 1 0 0 1
4967 34 1.29438 1.04457 2.71796 1 1 -1 1
1109 8 3.73793 1.18966 3.2955 1 1 -1 1
1862 13 1.46083 1.53389 4.0563 1 0 0 1
1866 13 0.867657 1.9584 3.16493 1 0 0 1
1863 13 1.2157 1.6299 3.75932 1 0 0 1
3752 26 2.75548 0.932694 2.05993 0 0 0 1
1864 13 1.03523 1.98675 3.80091 1 0 0 1
1865 13 0.761842 2.01345 3.53588 1 0 0 1
1868 13 0.734548 1.8723 2.55525 1 0 0 1
1861 13 1.71132 1.2632 3.95014 1 0 0 1
6470 44 1.85744 2.06656 2.55534 1 0 1 1
6469 44 1.63806 2.31112 2.75705 1 0 1 1
3756 26 2.51024 1.43276 3.20841 0 0 0 1
3757 26 2.54594 1.7426 3.42926 0 0 0 1
916 7 3.1429 4.22297 2.37287 1 -1 -1 1
1106 8 3.10373 0.439965 3.62609 1 1 -1 1
6595 44 0.489036 3.02692 0.339088 1 0 1 1
4969 34 0.663354 1.08194 2.98721 1 1 -1 1
7250 49 4.0108 1.56199 2.16831 0 1 1 1
7251 49 3.86806 1.90249 2.30474 0 1 1 1
3753 26 2.89503 1.17623 2.3345 0 0 0 1
7252 49 3.50103 1.99399 2.18641 0 1 1 1
6479 44 2.68981 0.557684 0.702285 1 0 1 1
1869 13 0.451524 1.90042 2.29257 1 0 0 1
1031 7 3.71503 0.38672 1.15977 1 -1 -1 1
3754 26 2.64104 1.18161 2.62508 0 0 0 1
3755 26 2.71013 1.4858 2.87343 0 0 0 1
1107 8 3.2438 0.80283 3.54452 1 1 -1 1
1108 8 3.59647 0.818342 3.35921 1 1 -1 1
4968 34 0.943429 0.870855 2.80902 1 1 -1 1
3758 26 2.90767 1.83455 3.53642 0 0 0 1
3764 26 2.69676 3.7582 3.3929 0 0 0 1
7262 49 1.51532 4.20491 2.59129 0 1 1 1
6477 44 2.26255 0.732904 1.16002 1 0 1 1
5664 38 0.847112 4.00939 1.44276 1 1 1 1
4800 32 3.81412 3.87978 1.08799 -1 0 0 2
8509 57 0.550238 3.58337 2.96785 1 1 1 1
7261 49 1.8353 4.0989 2.75995 0 1 1 1
8510 57 0.559744 3.25457 2.76687 1 1 1 1
8512 57 0.805525 2.85206 2.3125 1 1 1 1
5581 38 2.3117 4.28969 0.927984 1 1 1 1
8511 57 0.819293 3.20264 2.48524 1 1 1 1
6465 44 1.32437 3.24047 3.54846 1 0 1 1
6466 44 1.62326 3.06906 3.36505 1 0 1 1
6467 44 1.52992 2.77655 3.13383 1 0 1 1
6468 44 1.80949 2.52782 3.00599 1 0 1 1
6464 44 1.41307 3.55443 3.76775 1 0 1 1
7259 49 1.99971 3.69536 2.25432 0 1 1 1
7258 49 2.0689 3.31944 2.16765 0 1 1 1
7257 49 2.41569 3.18507 2.28945 0 1 1 1
909 7 3.91721 2.63023 3.40089 1 -1 -1 1
7256 49 2.45207 2.80765 2.26731 0 1 1 1
912 7 3.84291 3.46488 2.87792 1 -1 -1 1
913 7 3.65281 3.58336 2.55471 1 -1 -1 1
3761 26 2.84678 2.82741 3.69595 0 0 0 1
3763 26 2.83777 3.45723 3.59543 0 0 0 1
3760 26 2.7513 2.47031 3.53973 0 0 0 1
7253 49 3.32733 2.31465 2.34423 0 1 1 1
3759 26 2.92669 2.17468 3.72686 0 0 0 1
7254 49 2.94239 2.34443 2.24275 0 1 1 1
6462 44 1.14996 3.99099 4.19915 1 0 1 1
4799 32 3.86739 4.08575 1.41712 -1 0 0 1
8506 57 0.58131 4.23174 3.33361 1 1 1 1
1110 8 3.92124 1.29369 3.62255 1 1 -1 1
5659 38 1.62896 3.11291 0.875235 1 1 1 1
6463 44 1.10841 3.68696 3.98496 1 0 1 1
5591 38 2.51828 1.95728 0.763348 1 1 1 1
908 7 4.14452 2.5114 3.69627 1 -1 -1 1
1111 8 4.15623 1.60983 3.57578 1 1 -1 1
5401 37 3.75386 1.16999 0.367876 1 0 1 2
404 3 0.438581 0.478961 4.30574 1 3 -1 1
4970 34 0.365351 0.863979 3.09858 1 1 -1 1
2098 14 0.70148 0.825859 0.393183 0 1 1 1
1019 7 3.09001 3.02436 0.392359 1 -1 -1 1
2634 18 1.13302 1.61638 5.15262 1 0 1 1
2635 18 0.896678 1.4392 4.9136 1 0 1 1
2633 18 1.48393 1.46639 5.15193 1 0 1 1
2632 18 1.75748 1.66546 5.36273 1 0 1 1
2631 18 2.10168 1.47581 5.39467 1 0 1 1
3666 25 4.29016 0.736185 5.98013 0 1 1 1
398 3 2.24282 0.576288 4.88808 1 3 -1 1
906 7 4.22669 2.5666 4.35352 1 -1 -1 1
1292 9 2.53954 3.29515 7.56918 -1 0 1 1
3153 22 0.680173 3.88318 6.39855 0 0 0 1
1154 8 1.98074 2.31726 4.50545 1 1 -1 1
1212 9 1.48517 2.33583 6.30237 -1 0 1 1
2630 18 2.34021 1.67255 5.63538 1 0 1 1
400 3 1.60664 0.546428 4.77428 1 3 -1 1
2629 18 2.67357 1.46601 5.72328 1 0 1 1
3152 22 0.401147 4.11263 6.30039 0 0 0 1
3587 24 2.35642 3.90639 4.61534 -1 0 0 1
4588 31 0.617435 1.559 6.27111 1 1 0 1
4587 31 0.607397 1.91942 6.12447 1 1 0 1
2636 18 0.566965 1.61919 4.83315 1 0 1 1
3656 25 1.35627 0.604552 5.88695 0 1 1 1
4451 30 4.21719 3.0885 8.09348 -1 1 1 1
1289 9 3.18464 2.78606 8.09142 -1 0 1 1
1153 8 2.36823 2.38709 4.53357 1 1 -1 1
905 7 4.07583 2.65296 4.70788 1 -1 -1 1
1151 8 2.9567 2.1394 4.66841 1 1 -1 1
1148 8 3.75909 1.58112 4.86613 1 1 -1 1
2628 18 2.93498 1.6478 5.93671 1 0 1 1
1149 8 3.55678 1.8992 4.74765 1 1 -1 1
1155 8 1.71737 2.60022 4.50797 1 1 -1 1
1150 8 3.16728 1.84824 4.80852 1 1 -1 1
1152 8 2.57991 2.05955 4.60738 1 1 -1 1
2624 18 4.04926 1.84822 6.45825 1 0 1 1
1147 8 3.64327 1.24741 4.70251 1 1 -1 1
1159 8 0.584825 3.12235 4.60719 1 1 -1 1
2627 18 3.28423 1.47639 5.98979 1 0 1 1
2626 18 3.49809 1.73681 6.19919 1 0 1 1
2625 18 3.83962 1.56838 6.28261 1 0 1 1
4457 30 3.40715 4.26394 6.76093 -1 1 1 1
1297 9 1.99329 4.27371 6.42171 -1 0 1 1
3660 25 2.62037 0.644192 6.08734 0 1 1 1
7776 52 0.387088 0.922667 7.66336 1 1 0 1
3654 25 0.710387 0.642772 5.69452 0 1 1 1
1216 9 0.548918 3.14802 5.89355 -1 0 1 1
6455 44 1.7351 3.47917 5.47758 1 0 1 1
6458 44 0.975419 4.01733 5.1528 1 0 1 1
1214 9 1.03363 2.76787 6.14055 -1 0 1 1
6457 44 1.27578 3.9072 5.38955 1 0 1 1
6456 44 1.54682 3.69023 5.2183 1 0 1 1
1215 9 0.913907 3.01484 5.86496 -1 0 1 1
1213 9 1.4159 2.69222 6.12857 -1 0 1 1
6453 44 2.2218 3.04988 5.51741 1 0 1 1
6454 44 2.04831 3.32003 5.29504 1 0 1 1
3664 25 3.70367 0.501573 6.17511 0 1 1 1
3154 22 0.705377 3.75959 6.77918 0 0 0 1
1290 9 2.85058 2.87417 7.92421 -1 0 1 1
1204 9 2.77188 1.51561 8.15516 -1 0 1 1
3661 25 2.96263 0.473345 6.15964 0 1 1 1
4586 31 0.429456 1.92679 5.7805 1 1 0 1
849 6 2.015 4.06832 8.09524 1 0 0 1
7487 50 3.06312 3.28249 6.12822 1 1 0 1
6451 44 2.69598 2.57771 5.55665 1 0 1 2
6452 44 2.50402 2.84143 5.33113 1 0 1 1
1144 8 4.11275 0.427863 4.994 1 1 -1 1
3585 24 2.84882 3.4831 4.72346 -1 0 0 1
7778 52 0.648553 0.618362 7.19432 1 1 0 1
3583 24 3.42833 3.6753 4.57634 -1 0 0 1
7486 50 3.42776 3.31538 5.99472 1 1 0 1
7485 50 3.48832 3.61213 5.753 1 1 0 1
3582 24 3.80638 3.72405 4.67727 -1 0 0 1
3584 24 3.21951 3.48735 4.84538 -1 0 0 1
7484 50 3.87548 3.67546 5.71699 1 1 0 1
4600 31 4.19297 0.580156 7.39335 1 1 0 1
3665 25 4.08845 0.458448 6.16462 0 1 1 1
7483 50 4.04608 3.69185 6.06833 1 1 0 1
4453 30 3.98067 3.53194 7.66147 -1 1 1 1
3297 22 1.59483 1.44731 8.01408 0 0 -1 1
7491 50 3.67206 2.64027 7.10316 1 1 0 1
4589 31 0.839934 1.46364 6.58623 1 1 0 1
4590 31 1.20935 1.54069 6.52021 1 1 0 1
3298 22 1.27295 1.56841 7.82527 0 0 -1 1
3299 22 1.34925 1.89063 7.60893 0 0 -1 1
4591 31 1.4823 1.35805 6.76283 1 1 0 1
4592 31 1.84335 1.33681 6.62657 1 1 0 1
3300 22 1.02608 2.02571 7.42793 0 0 -1 2
7777 52 0.716355 0.887337 7.45557 1 1 0 1
402 3 0.986409 0.529728 4.65146 1 3 -1 1
1208 9 2.22507 2.24607 7.14205 -1 0 1 1
1211 9 1.85715 2.22818 6.34327 -1 0 1 1
4593 31 2.06012 1.1613 6.89932 1 1 0 1
4456 30 3.63516 3.94761 6.84683 -1 1 1 1
3655 25 1.08689 0.51127 5.6135 0 1 1 1
1158 8 0.743262 2.75748 4.6319 1 1 -1 1
7494 50 4.04617 1.8862 7.5839 1 1 0 1
1156 8 1.35046 2.49916 4.6099 1 1 -1 1
3658 25 1.98984 0.624585 5.99134 0 1 1 1
7488 50 3.01971 2.9831 6.3739 1 1 0 1
1157 8 1.13203 2.82068 4.59524 1 1 -1 1
4455 30 3.69547 3.91422 7.23452 -1 1 1 1
3662 25 3.15866 0.372347 5.85141 0 1 1 1
4594 31 2.44995 1.16845 6.83934 1 1 0 1
4598 31 3.61298 0.843719 7.22353 1 1 0 1
1207 9 2.52222 2.06246 7.33384 -1 0 1 1
4597 31 3.24579 0.84842 7.32301 1 1 0 1
1206 9 2.46319 1.89959 7.68889 -1 0 1 1
1205 9 2.79655 1.7303 7.82139 -1 0 1 1
7493 50 3.98247 2.25242 7.46056 1 1 0 1
4595 31 2.62365 1.00798 7.14072 1 1 0 1
4596 31 3.00107 0.986099 7.05329 1 1 0 1
7492 50 3.65062 2.29561 7.27738 1 1 0 1
3586 24 2.74165 3.8581 4.6719 -1 0 0 1
1291 9 2.87955 3.20719 7.71671 -1 0 1 1
1294 9 2.21039 3.65708 7.15529 -1 0 1 1
1145 8 4.11298 0.794129 4.86271 1 1 -1 1
848 6 1.72467 4.1632 7.83456 1 0 0 1
3199 22 0.584427 4.06303 8.04191 0 0 0 1
4452 30 4.21918 3.23025 7.72791 -1 1 1 1
1296 9 1.9117 3.99863 6.69263 -1 0 1 1
399 3 1.90673 0.377239 4.95307 1 3 -1 1
3156 22 1.04563 3.441 7.22449 0 0 0 1
3155 22 0.997485 3.48885 6.84783 0 0 0 1
3157 22 1.25027 3.11728 7.32888 0 0 0 1
3158 22 1.29243 3.06557 7.69965 0 0 0 1
1210 9 2.0352 2.50766 6.57386 -1 0 1 1
1209 9 2.33333 2.35695 6.77882 -1 0 1 1
3159 22 1.58976 2.85117 7.80278 0 0 0 1
1146 8 3.73671 0.914017 4.86123 1 1 -1 1
6461 44 0.819521 4.09394 4.38271 1 0 1 1
903 7 4.26732 2.5965 5.33889 1 -1 -1 1
7489 50 3.3233 2.95494 6.60142 1 1 0 1
1293 9 2.55373 3.61111 7.3289 -1 0 1 1
1295 9 2.20094 3.98234 6.95311 -1 0 1 1
3160 22 1.61915 2.73204 8.16931 0 0 0 1
7490 50 3.35423 2.65787 6.8637 1 1 0 1
4454 30 3.97258 3.65772 7.29745 -1 1 1 1
3659 25 2.3248 0.461964 5.90768 0 1 1 1
3653 25 0.421735 0.452435 5.51358 0 1 1 1
4599 31 3.83413 0.692982 7.51135 1 1 0 1
3657 25 1.69987 0.483232 5.76661 0 1 1 1
2637 18 0.414725 1.4189 4.52487 1 0 1 1
826 6 3.09531 4.1216 8.05263 1 0 0 1
7775 52 0.39119 1.2154 7.92794 1 1 0 1
7780 52 1.25294 0.360044 7.11537 1 1 0 1
7779 52 0.943235 0.527192 6.93997 1 1 0 1
6459 44 1.13192 4.27035 4.90866 1 0 1 1
3588 24 2.3064 4.2514 4.45357 -1 0 0 1
3161 22 1.95266 2.53016 8.2139 0 0 0 1
397 3 2.56842 0.44931 5.05026 1 3 -1 1
3151 22 0.483435 4.26688 5.94418 0 0 0 2
850 6 2.0209 3.70967 8.24213 1 0 0 1
1203 9 3.06651 1.28624 8.22629 -1 0 1 1
3581 24 3.99653 3.93962 4.41525 -1 0 0 1
7821 53 0.909941 1.81004 9.11284 2 1 -1 1
7822 53 0.806388 1.8787 8.74484 2 1 -1 1
7823 53 0.59057 2.19147 8.68454 2 1 -1 1
3603 25 0.658484 0.418055 9.71025 0 1 1 1
824 6 3.38147 3.72174 8.47039 1 0 0 1
3294 22 1.63932 0.748452 8.74129 0 0 -1 1
7820 53 1.13853 1.48978 9.14399 2 1 -1 1
3164 22 2.22899 1.87186 8.89621 0 0 0 1
3166 22 2.44268 1.49844 9.38907 0 0 0 1
3165 22 2.53214 1.75264 9.10429 0 0 0 1
7819 53 1.25099 1.40842 9.5162 2 1 -1 1
3295 22 1.79249 1.01593 8.50131 0 0 -1 1
3189 22 2.07115 2.15128 10.2445 0 0 0 1
3163 22 2.27945 2.15159 8.61561 0 0 0 1
3190 22 1.75107 2.21637 10.0274 0 0 0 1
6509 44 0.659392 2.03346 10.0772 1 0 0 1
3293 22 1.8849 0.473732 8.87873 0 0 -1 1
7818 53 1.53664 1.1446 9.56821 2 1 -1 1
7812 53 2.0272 0.326935 11.0432 2 1 -1 1
3296 22 1.50135 1.21243 8.31362 0 0 -1 1
825 6 3.34339 4.09917 8.35367 1 0 0 1
1202 9 3.0255 1.09574 8.56605 -1 0 1 1
7824 53 0.378683 2.14504 8.35584 2 1 -1 1
3167 22 2.77015 1.3947 9.59048 0 0 0 1
1285 9 3.71007 1.92093 8.92002 -1 0 1 1
1283 9 3.89992 1.54196 9.45402 -1 0 1 1
1282 9 3.84604 1.23195 9.68728 -1 0 1 1
3168 22 2.68375 1.14784 9.88352 0 0 0 1
1284 9 3.65945 1.60897 9.1513 -1 0 1 1
1201 9 3.33441 0.86083 8.61767 -1 0 1 2
3169 22 2.98628 0.981504 10.0671 0 0 0 1
1286 9 3.4123 2.03816 8.68117 -1 0 1 1
3170 22 2.88602 0.731776 10.34 0 0 0 1
858 6 3.08558 2.20031 10.1671 1 0 0 1
1193 8 2.5086 3.26741 10.5853 1 1 -1 1
3292 22 2.19772 0.598594 9.10374 0 0 -1 1
5731 39 3.56737 3.3198 11.777 -1 0 -1 1
3198 22 0.574107 3.78471 8.30197 0 0 0 1
1188 8 1.66906 4.10805 9.41826 1 1 -1 1
1200 8 3.37508 2.01991 11.8644 1 1 -1 2
3191 22 1.79511 2.47263 9.72598 0 0 0 1
3194 22 1.21254 2.90862 9.0313 0 0 0 1
3193 22 1.48548 2.85953 9.30231 0 0 0 1
3195 22 1.17018 3.28218 8.90417 0 0 0 1
1190 8 1.95081 3.69419 9.85265 1 1 -1 1
3192 22 1.50818 2.50132 9.45043 0 0 0 1
885 6 0.806392 3.81105 9.82289 1 0 0 1
3197 22 0.892347 3.6609 8.47159 0 0 0 1
1189 8 1.95631 4.03521 9.665 1 1 -1 1
852 6 2.28067 3.32208 8.73694 1 0 0 1
851 6 2.21212 3.67681 8.58675 1 0 0 1
3196 22 0.835898 3.36869 8.72729 0 0 0 1
884 6 0.713337 3.53117 10.0683 1 0 0 1
1191 8 2.24138 3.64959 10.1043 1 1 -1 1
883 6 1.01292 3.50275 10.3238 1 0 0 1
1288 9 3.15228 2.45761 8.29479 -1 0 1 1
819 6 4.21283 2.90626 9.65762 1 0 0 1
5146 35 3.00179 4.12522 9.56441 0 0 -1 1
856 6 2.85157 2.58621 9.64677 1 0 0 1
1287 9 3.44307 2.39763 8.54368 -1 0 1 1
6629 45 0.623736 3.58352 11.416 1 0 0 1
854 6 2.54413 2.94866 9.20364 1 0 0 1
820 6 3.93099 2.90803 9.39081 1 0 0 1
853 6 2.50975 3.31667 9.04934 1 0 0 1
822 6 3.66868 3.27929 8.8976 1 0 0 1
821 6 3.88579 3.25093 9.22564 1 0 0 1
823 6 3.61549 3.66716 8.78818 1 0 0 1
855 6 2.79185 2.95475 9.50125 1 0 0 1
5145 35 3.30967 4.0838 9.79205 0 0 -1 1
5144 35 3.31794 3.7581 9.98996 0 0 -1 1
857 6 3.06647 2.5466 9.97502 1 0 0 1
818 6 4.22225 2.55637 9.83026 1 0 0 1
3130 21 1.63926 4.00548 10.8593 1 0 0 1
3605 25 0.380192 0.970573 9.87939 0 1 1 1
6502 44 1.37103 0.924723 11.8904 1 0 0 1
6507 44 1.00051 1.72472 10.5298 1 0 0 1
6505 44 1.2784 1.48464 11.0728 1 0 0 1
6504 44 1.16173 1.2608 11.3666 1 0 0 1
6503 44 1.47126 1.16617 11.581 1 0 0 1
6506 44 0.974559 1.47452 10.8174 1 0 0 1
3188 22 1.99153 1.84622 10.4763 0 0 0 1
7817 53 1.51987 1.02884 9.9283 2 1 -1 1
3187 22 2.28436 1.79998 10.7255 0 0 0 1
3186 22 2.24662 1.50159 10.989 0 0 0 1
1281 9 4.13002 1.20345 9.95739 -1 0 1 1
7815 53 1.71215 0.563704 10.3591 2 1 -1 1
3184 22 2.49765 1.13837 11.4256 0 0 0 1
876 6 1.76206 2.10998 11.9482 1 0 0 1
6632 45 1.20609 3.27495 12.1957 1 0 0 1
866 6 4.18213 1.27316 12.0645 1 0 0 1
1196 8 2.6193 2.58695 11.2994 1 1 -1 1
3604 25 0.350603 0.651009 9.6658 0 1 1 1
865 6 4.29262 1.04 11.7556 1 0 0 1
5140 35 4.02958 3.04977 10.778 0 0 -1 1
1198 8 3.23495 2.51093 11.4535 1 1 -1 1
859 6 3.38868 2.15502 10.4141 1 0 0 1
3185 22 2.54933 1.43786 11.1891 0 0 0 1
3181 22 3.06707 0.53148 12.0362 0 0 0 1
864 6 4.05141 1.03281 11.4421 1 0 0 1
863 6 3.97244 1.39111 11.3067 1 0 0 1
3171 22 3.16254 0.532767 10.54 0 0 0 1
3182 22 2.75862 0.717135 11.8795 0 0 0 1
3183 22 2.81925 0.993308 11.6049 0 0 0 1
861 6 3.66924 1.75787 10.872 1 0 0 1
860 6 3.42516 1.78888 10.5697 1 0 0 1
862 6 3.65567 1.41459 11.0676 1 0 0 1
1199 8 3.49927 2.36501 11.7236 1 1 -1 1
3841 26 4.27551 4.26479 10.8339 0 0 0 1
887 6 0.465507 4.20544 9.40915 1 0 0 1
5729 39 3.34178 3.73656 11.3445 -1 0 -1 1
3162 22 1.93379 2.29545 8.53936 0 0 0 1
1194 8 2.43865 2.96326 10.8161 1 1 -1 1
877 6 1.85064 2.38394 11.6933 1 0 0 1
878 6 1.53452 2.54724 11.5418 1 0 0 1
5143 35 3.64767 3.74499 10.205 0 0 -1 1
2542 17 0.436195 2.28554 11.7629 1 1 0 1
5730 39 3.40706 3.6724 11.7229 -1 0 -1 1
6628 45 0.603605 3.90442 11.2073 1 0 0 1
3134 21 2.16722 3.41159 11.9261 1 0 0 1
3131 21 1.94262 4.01654 11.1183 1 0 0 1
3132 21 1.94759 3.70321 11.3639 1 0 0 1
6631 45 0.9016 3.29417 11.9473 1 0 0 1
879 6 1.59274 2.75946 11.2296 1 0 0 1
880 6 1.2564 2.85148 11.052 1 0 0 1
3133 21 2.21922 3.68135 11.6491 1 0 0 1
882 6 0.982831 3.19911 10.5658 1 0 0 1
881 6 1.30355 3.11072 10.7566 1 0 0 1
6630 45 0.87527 3.60233 11.7171 1 0 0 1
1192 8 2.24152 3.31459 10.2989 1 1 -1 1
7816 53 1.77786 0.751589 10.0137 2 1 -1 1
5141 35 4.05615 3.36695 10.5448 0 0 -1 1
5142 35 3.71165 3.39371 10.3625 0 0 -1 1
1197 8 2.8632 2.51372 11.5938 1 1 -1 1
1278 9 4.32618 0.44419 10.5995 -1 0 1 1
5728 39 3.06942 4.01612 11.3047 -1 0 -1 1
1195 8 2.71836 2.90182 11.0784 1 1 -1 1
5732 39 3.6773 3.29352 12.1475 -1 0 -1 1
5727 39 3.03173 4.14154 10.9335 -1 0 -1 1
6508 44 0.653614 1.7776 10.3705 1 0 0 1
1280 9 4.08586 0.865589 10.1613 -1 0 1 1
886 6 0.504778 3.85535 9.57938 1 0 0 1
3840 26 4.24786 4.11051 11.1862 0 0 0 1
2543 17 0.55605 1.93445 11.8918 1 1 0 1
6501 44 1.65818 0.90557 12.1568 1 0 0 1
875 6 2.07762 2.02202 12.1728 1 0 0 1
2548 17 1.13415 1.6402 13.2902 1 1 0 1
2549 17 1.23641 1.27537 13.4279 1 1 0 1
2550 17 1.54507 1.27457 13.691 1 1 0 2
2546 17 0.790558 1.97877 12.8575 1 1 0 1
2547 17 0.846825 1.63962 13.0284 1 1 0 1
6639 45 2.01676 2.12887 13.9816 1 0 0 1
1020 7 3.13746 2.64499 16.0818 1 -1 -2 1
2545 17 0.538408 1.95897 12.5617 1 1 0 1
1259 9 2.22121 0.466804 14.632 -1 0 1 1
5735 39 4.27654 2.7198 12.697 -1 0 -1 1
873 6 2.26246 1.76614 12.7708 1 0 0 1
5405 37 4.05853 2.22606 15.5107 1 0 0 1
6640 45 2.13492 2.17556 14.3438 1 0 0 1
874 6 2.02267 1.77794 12.4468 1 0 0 1
8197 55 4.26671 3.61746 14.3643 0 1 0 1
6594 44 0.543936 3.0146 15.7441 1 0 0 1
868 6 3.74044 1.43122 12.4988 1 0 0 1
872 6 2.63399 1.68888 12.6621 1 0 0 1
871 6 2.89579 1.6418 12.9587 1 0 0 1
870 6 3.27272 1.64061 12.8484 1 0 0 1
869 6 3.37518 1.36666 12.5802 1 0 0 1
1266 9 3.60712 0.842612 13.7892 -1 0 1 1
1268 9 3.96199 0.648417 13.2879 -1 0 1 1
8198 55 4.3354 3.23447 14.3376 0 1 0 1
3145 21 4.14321 1.84644 14.5084 1 0 0 1
6500 44 1.60459 0.576606 12.3752 1 0 0 1
8520 57 1.09157 2.06416 15.982 1 1 0 1
5644 38 0.480007 4.09504 12.6154 1 1 0 1
1265 9 3.26041 0.86348 13.9907 -1 0 1 1
3143 21 3.71568 2.22233 14.1418 1 0 0 1
6499 44 1.91577 0.477505 12.605 1 0 0 1
5601 38 2.87687 3.13008 14.2949 1 1 0 1
3136 21 2.47702 3.08917 12.4026 1 0 0 1
6633 45 1.19563 2.95472 12.432 1 0 0 1
5608 38 1.69173 4.29517 12.668 1 1 0 1
5311 36 3.02548 4.21443 12.5757 1 1 0 1
2544 17 0.748008 1.91005 12.226 1 1 0 1
6483 44 3.42632 0.422577 15.432 1 0 0 1
6638 45 2.00062 2.43763 13.7308 1 0 0 1
5646 38 0.755229 3.8053 13.1297 1 1 0 1
6636 45 1.78083 2.68142 13.1851 1 0 0 1
6635 45 1.54628 2.641 12.8779 1 0 0 1
6634 45 1.50847 2.94948 12.6439 1 0 0 1
5647 38 0.736263 3.67112 13.4999 1 1 0 1
5606 38 1.97079 4.02058 13.1701 1 1 0 1
5648 38 1.04713 3.44972 13.5974 1 1 0 1
6637 45 1.76239 2.37459 13.4313 1 0 0 1
5607 38 1.83181 3.96767 12.8204 1 1 0 1
5605 38 2.09208 3.68164 13.3508 1 1 0 1
8527 57 0.558559 2.49994 13.7613 1 1 0 1
5604 38 2.318 3.72019 13.6774 1 1 0 1
1260 9 2.32912 0.631369 14.9787 -1 0 1 1
5404 37 3.8616 1.90968 15.4685 1 0 0 1
8195 55 3.86008 4.08362 14.6157 0 1 0 1
6498 44 1.973 0.711502 12.9196 1 0 0 1
8196 55 3.99304 3.72273 14.6489 0 1 0 1
3142 21 3.46956 2.17582 13.8424 1 0 0 1
3141 21 3.43397 2.46605 13.5847 1 0 0 1
3137 21 2.73809 3.07463 12.7036 1 0 0 1
5306 36 4.01231 3.71653 13.3101 1 1 0 1
3138 21 2.78026 2.70439 12.867 1 0 0 1
3139 21 3.03628 2.72207 13.1642 1 0 0 1
1269 9 3.98509 0.447567 12.9636 -1 0 1 1
5308 36 3.37965 3.623 13.27 1 1 0 1
5307 36 3.72462 3.44571 13.3637 1 1 0 1
3140 21 3.13309 2.39958 13.351 1 0 0 1
5734 39 4.08346 3.0313 12.5868 -1 0 -1 1
1011 7 1.78303 4.2019 14.418 1 -1 -2 1
5733 39 3.98643 3.05449 12.207 -1 0 -1 1
5309 36 3.41228 3.88398 12.988 1 1 0 1
6485 44 3.77466 0.439496 14.9018 1 0 0 1
6648 45 0.517612 0.585652 15.1474 1 0 0 1
8521 57 1.13793 2.03037 15.5898 1 1 0 1
1267 9 3.6128 0.646739 13.4629 -1 0 1 1
6647 45 0.828131 0.672775 14.927 1 0 0 1
6644 45 1.35423 1.27462 14.9342 1 0 0 1
6645 45 1.11838 1.16633 14.6316 1 0 0 1
6643 45 1.7069 1.41048 14.8463 1 0 0 1
6642 45 1.72788 1.7444 14.6345 1 0 0 1
6641 45 2.09691 1.83004 14.5262 1 0 0 1
6646 45 0.7761 1.02167 14.7488 1 0 0 1
8523 57 0.986538 2.14053 14.986 1 1 0 1
8524 57 0.736466 2.32876 14.7491 1 1 0 1
1261 9 2.5543 0.93154 14.8852 -1 0 1 1
8522 57 0.885729 2.21457 15.3525 1 1 0 1
2100 14 1.26033 0.553696 15.9312 0 1 0 2
6590 44 0.924791 4.2271 15.3863 1 0 0 1
5411 37 4.16455 3.86519 15.8552 1 0 0 1
3146 21 4.14209 1.53785 14.7515 1 0 0 1
6497 44 2.29315 0.621855 13.1435 1 0 0 1
5310 36 3.07471 4.06088 12.929 1 1 0 1
5598 38 3.0558 2.73258 14.9865 1 1 0 1
5657 38 1.80544 2.83087 16.0968 1 1 0 1
5412 37 3.90817 4.13949 15.9725 1 0 0 1
2097 14 0.64243 1.12412 15.9313 0 1 0 1
5402 37 3.76955 1.35974 15.797 1 0 0 1
1264 9 3.32276 1.08314 14.3138 -1 0 1 1
3144 21 3.78603 1.90936 14.3554 1 0 0 1
5403 37 3.91017 1.7216 15.8028 1 0 0 1
1263 9 3.0097 1.1759 14.5354 -1 0 1 1
1262 9 2.85707 0.841084 14.6579 -1 0 1 1
5597 38 3.12483 2.34475 15.03 1 1 0 1
5596 38 2.82599 2.17928 15.2308 1 1 0 1
5595 38 2.88581 1.86495 15.4515 1 1 0 1
5594 38 2.57934 1.68032 15.6024 1 1 0 1
8194 55 3.57983 4.13551 14.8838 0 1 0 1
5407 37 4.31007 2.75225 15.2545 1 0 0 1
5656 38 1.72368 2.80193 15.7287 1 1 0 1
5649 38 1.00008 3.28883 13.9539 1 1 0 1
5650 38 1.34858 3.19397 14.1084 1 1 0 1
5599 38 3.30722 2.91891 14.7484 1 1 0 1
6592 44 0.705687 3.62457 15.6015 1 0 0 1
6593 44 0.835146 3.25903 15.6259 1 0 0 1
8525 57 0.789026 2.32065 14.3589 1 1 0 1
1012 7 1.77873 4.17755 14.7959 1 -1 -2 1
1018 7 2.8435 3.19771 15.94 1 -1 -2 1
8526 57 0.504023 2.48565 14.1417 1 1 0 1
5593 38 2.42569 1.81929 15.9315 1 1 0 1
1014 7 2.12759 3.88914 15.289 1 -1 -2 1
5651 38 1.30984 3.1239 14.4891 1 1 0 1
5654 38 1.9609 2.71471 15.1341 1 1 0 1
5655 38 1.91593 2.55812 15.4964 1 1 0 1
5652 38 1.64461 3.01058 14.6329 1 1 0 1
5653 38 1.62505 2.84751 14.9862 1 1 0 1
1013 7 2.112 4.01213 14.9222 1 -1 -2 1
6591 44 1.01145 3.88495 15.5535 1 0 0 1
5408 37 4.04163 2.96898 15.4347 1 0 0 1
6589 44 0.732188 4.16058 15.0562 1 0 0 1
5409 37 4.22938 3.26944 15.574 1 0 0 1
1017 7 2.70822 3.55991 16.026 1 -1 -2 1
5406 37 4.15286 2.40316 15.1683 1 0 0 1
5602 38 2.7511 3.44646 14.0782 1 1 0 1
1015 7 2.45409 3.73708 15.4308 1 -1 -2 1
1016 7 2.40611 3.66346 15.8118 1 -1 -2 1
5600 38 3.16403 3.22175 14.5453 1 1 0 1
5603 38 2.51087 3.41235 13.7793 1 1 0 1
3135 21 2.45698 3.42679 12.1957 1 0 0 1
5410 37 4.00669 3.53373 15.7503 1 0 0 1
5645 38 0.433469 3.96805 12.9786 1 1 0 1
5609 38 1.49147 4.22866 12.3294 1 1 0 1
5413 37 3.61073 4.21562 15.738 1 0 0 1
6481 44 3.05017 0.466455 15.9605 1 0 0 1
1249 9 0.608829 0.607873 12.3547 -1 0 1 1
8519 57 1.37754 1.88411 16.1842 1 1 0 1
867 6 3.89368 1.13372 12.2973 1 0 0 1
7266 49 0.881376 5.33753 2.31193 0 1 1 1
7264 49 1.22354 4.78947 2.44829 0 1 1 1
7268 49 0.626596 5.93379 2.28047 0 1 1 1
924 7 1.56009 5.79246 1.55336 1 -1 -1 1
923 7 1.67659 5.41172 1.47404 1 -1 -1 1
8500 57 0.417324 6.02806 3.46239 1 1 1 1
4767 32 2.94815 7.97899 0.603895 -1 0 0 1
4781 32 2.29739 6.18282 4.04431 -1 0 0 1
925 7 1.2808 5.89893 1.30899 1 -1 -1 1
5573 38 0.872776 5.14803 0.790246 1 1 1 1
5572 38 0.589642 5.12783 1.08382 1 1 1 1
917 7 2.91025 4.40635 2.10974 1 -1 -1 1
4766 32 2.61982 8.15785 0.429449 -1 0 0 1
3772 26 3.20831 5.91805 3.48936 0 0 0 1
7267 49 0.666042 5.61175 2.50151 0 1 1 1
5574 38 0.743279 5.07958 0.443357 1 1 1 1
5423 37 4.23479 5.96507 0.425705 1 0 1 1
922 7 1.99294 5.29936 1.69006 1 -1 -1 1
921 7 1.97606 4.92049 1.77624 1 -1 -1 1
4796 32 3.89354 4.80742 1.79047 -1 0 0 1
920 7 2.28585 4.83952 2.02302 1 -1 -1 1
919 7 2.6288 4.96362 1.89456 1 -1 -1 1
6243 42 4.16637 7.12356 1.52337 -1 -1 1 1
918 7 2.91477 4.80222 2.10226 1 -1 -1 1
3356 23 3.68206 5.96667 1.89792 -1 -1 -1 1
3357 23 3.53391 6.1155 2.23195 -1 -1 -1 1
3362 23 3.64764 7.66241 2.82807 -1 -1 -1 1
3599 24 2.0655 6.02017 2.40747 -1 0 0 1
3361 23 3.53405 7.28404 2.81817 -1 -1 -1 1
3600 24 2.41042 6.21797 2.32846 -1 0 0 2
3366 23 3.37808 7.76854 4.13223 -1 -1 -1 1
4779 32 2.04238 6.59488 3.62142 -1 0 0 1
8502 57 0.361488 5.38846 3.5716 1 1 1 1
5419 37 3.13261 5.62088 0.600447 1 0 1 1
8498 57 0.501424 6.70027 3.32089 1 1 1 1
4780 32 2.1412 6.53587 3.99148 -1 0 0 1
8504 57 0.390412 4.74011 3.69659 1 1 1 1
3766 26 2.53027 4.32462 3.27073 0 0 0 1
1310 9 1.16088 7.39167 4.2 -1 0 1 1
5579 38 1.97336 4.59939 0.471658 1 1 1 1
926 7 1.13336 6.2545 1.34759 1 -1 -1 1
928 7 0.772705 6.67501 1.01452 1 -1 -1 1
927 7 0.94757 6.32332 1.00555 1 -1 -1 1
7633 51 1.74354 6.92246 1.53873 0 0 1 1
7636 51 1.00035 7.11361 1.83639 0 0 1 1
7637 51 0.7586 7.39958 1.92951 0 0 1 1
7634 51 1.62295 6.9073 1.90221 0 0 1 1
7632 51 2.03288 6.6657 1.46943 0 0 1 1
7635 51 1.35984 7.19162 1.95278 0 0 1 1
7042 47 1.59551 7.40739 0.503344 0 0 1 1
7043 47 1.74655 7.57635 0.822251 0 0 1 1
7627 51 3.03822 7.01715 0.385443 0 0 1 1
7638 51 0.451095 7.45768 1.69917 0 0 1 1
7640 51 0.38576 8.12444 1.72052 0 0 1 1
3367 23 3.23057 7.42298 4.21022 -1 -1 -1 1
3358 23 3.681 6.47156 2.2699 -1 -1 -1 1
3363 23 3.46223 7.85833 3.11798 -1 -1 -1 1
7631 51 2.1347 6.71182 1.0983 0 0 1 1
4798 32 4.14822 4.36344 1.38138 -1 0 0 1
6242 42 3.98914 6.89238 1.27299 -1 -1 1 1
4769 32 3.11192 7.68989 1.17663 -1 0 0 1
6241 42 3.87607 7.0639 0.928377 -1 -1 1 1
7630 51 2.42196 6.46741 0.985728 0 0 1 1
7628 51 2.71088 6.83258 0.490104 0 0 1 1
7629 51 2.73361 6.65491 0.844634 0 0 1 1
4770 32 2.99018 7.48112 1.49017 -1 0 0 1
4772 32 2.64244 7.45146 2.02242 -1 0 0 1
4768 32 2.83616 7.76235 0.910468 -1 0 0 1
4771 32 2.702 7.65636 1.69822 -1 0 0 1
5580 38 2.28725 4.383 0.551203 1 1 1 1
3359 23 3.49294 6.70609 2.52451 -1 -1 -1 1
3360 23 3.6931 7.04331 2.56155 -1 -1 -1 1
5421 37 3.6418 6.0123 0.658873 1 0 1 1
4773 32 2.33928 7.64113 2.21483 -1 0 0 1
3354 23 4.22002 5.78709 1.56795 -1 -1 -1 1
7265 49 1.00339 5.08054 2.57902 0 1 1 1
8505 57 0.648157 4.60657 3.42232 1 1 1 1
4797 32 4.18747 4.57846 1.69762 -1 0 0 1
3778 26 4.26835 5.56372 4.20924 0 0 0 1
4795 32 3.87503 4.92758 2.17926 -1 0 0 1
3592 24 1.48146 5.0417 3.80061 -1 0 0 1
3597 24 1.53321 6.04873 2.81446 -1 0 0 1
3594 24 1.52698 5.71011 3.7289 -1 0 0 1
3595 24 1.52374 5.6665 3.33824 -1 0 0 1
3593 24 1.65853 5.37869 3.89958 -1 0 0 1
3591 24 1.54564 4.76355 4.06511 -1 0 0 1
3590 24 1.92547 4.68066 4.14062 -1 0 0 1
3775 26 3.6377 6.29003 4.08257 0 0 0 1
3598 24 1.92087 6.1044 2.77017 -1 0 0 1
7045 47 1.62087 8.04442 1.25983 0 0 1 1
3767 26 2.58018 4.69952 3.35519 0 0 0 1
4774 32 2.21899 7.4618 2.55305 -1 0 0 1
4790 32 3.67848 4.68868 3.56185 -1 0 0 1
3774 26 3.50598 6.47295 3.7618 0 0 0 1
4789 32 3.44043 4.61205 3.868 -1 0 0 1
5420 37 3.43768 5.76793 0.424238 1 0 1 1
4793 32 3.84461 4.76389 2.80224 -1 0 0 1
3769 26 2.51866 5.32123 3.18958 0 0 0 1
4791 32 3.71309 4.38331 3.32024 -1 0 0 1
3776 26 3.96346 6.09145 3.98937 0 0 0 1
3770 26 2.88656 5.42913 3.24333 0 0 0 1
3771 26 2.90706 5.82208 3.26122 0 0 0 1
4792 32 3.97935 4.47385 3.05411 -1 0 0 1
8496 57 0.639046 7.2837 3.06763 1 1 1 1
3768 26 2.46525 4.95172 3.08396 0 0 0 1
929 7 0.537502 6.69298 0.697021 1 -1 -1 1
8497 57 0.760339 7.00625 3.32042 1 1 1 1
8501 57 0.517301 5.73025 3.6682 1 1 1 1
7263 49 1.3612 4.549 2.71479 0 1 1 1
3364 23 3.46105 7.69928 3.47933 -1 -1 -1 1
1312 9 1.12975 7.99156 3.92434 -1 0 1 1
7044 47 1.50939 7.86445 0.933494 0 0 1 1
3596 24 1.42842 6.00492 3.17412 -1 0 0 1
3365 23 3.32358 7.92518 3.77672 -1 -1 -1 1
6240 42 4.14256 7.25276 0.733567 -1 -1 1 1
3773 26 3.20178 6.31103 3.5673 0 0 0 1
1311 9 1.34803 7.66917 3.99301 -1 0 1 1
4775 32 1.87252 7.53599 2.71465 -1 0 0 1
5422 37 3.94675 6.2116 0.495586 1 0 1 1
8495 57 0.820517 7.63517 3.06342 1 1 1 1
4778 32 1.98699 6.97152 3.52788 -1 0 0 1
4777 32 1.87699 7.07443 3.1672 -1 0 0 1
4776 32 1.82757 7.45632 3.09953 -1 0 0 1
4794 32 3.94156 4.65555 2.44518 -1 0 0 1
8494 57 0.624828 7.90211 2.85921 1 1 1 1
3355 23 4.06538 5.92789 1.89521 -1 -1 -1 1
8503 57 0.459876 5.09269 3.8358 1 1 1 1
7046 47 1.3073 8.22282 1.39912 0 0 1 1
8499 57 0.597078 6.36621 3.53819 1 1 1 1
7269 49 0.446601 6.24164 2.45714 0 1 1 1
4473 30 2.45848 8.18167 4.07756 -1 1 1 1
6244 42 4.29458 6.89168 1.81127 -1 -1 1 1
4338 29 4.30723 8.1224 3.97742 -1 1 0 1
4788 32 3.51701 4.81212 4.1943 -1 0 0 1
3777 26 4.07621 5.88617 4.29284 0 0 0 1
1301 9 1.70316 4.99428 5.41341 -1 0 1 1
1302 9 1.45621 5.30091 5.30832 -1 0 1 1
1300 9 1.54311 4.79737 5.71078 -1 0 1 1
1303 9 1.65557 5.60224 5.12815 -1 0 1 1
1304 9 1.45098 5.91407 5.0361 -1 0 1 1
5265 36 4.11697 4.68547 7.50457 1 1 0 1
836 6 1.66089 6.21903 6.08628 1 0 0 1
835 6 1.94362 6.17141 6.35519 1 0 0 1
838 6 1.05953 6.02833 5.87966 1 0 0 1
1305 9 1.22647 5.85368 4.72331 -1 0 1 1
837 6 1.31873 6.06878 6.16647 1 0 0 1
840 6 0.715724 5.51624 6.10896 1 0 0 1
1177 8 0.362274 6.34644 6.96935 1 1 -1 1
3864 26 3.65127 8.115 6.67643 0 0 0 1
4785 32 2.66355 5.19083 4.56245 -1 0 0 1
842 6 0.799923 5.07132 6.56427 1 0 0 1
841 6 0.837267 5.456 6.48804 1 0 0 1
1299 9 1.81468 4.58759 5.89251 -1 0 1 1
1180 8 0.522726 5.56226 7.55488 1 1 -1 1
1306 9 1.01674 6.18065 4.61037 -1 0 1 1
1624 11 2.1823 8.12787 5.47833 1 0 0 1
3375 23 3.74569 5.17508 5.38399 -1 -1 -1 1
3376 23 3.88598 4.9269 5.64869 -1 -1 -1 1
4461 30 2.81944 5.0101 5.96133 -1 1 1 1
4465 30 2.44235 6.18731 5.53039 -1 1 1 1
4464 30 2.51196 5.81596 5.41261 -1 1 1 1
4463 30 2.59137 5.54485 5.69433 -1 1 1 1
4462 30 2.74719 5.19261 5.61685 -1 1 1 1
3371 23 3.35651 6.36179 4.97091 -1 -1 -1 1