ITEM: TIMESTEP
22990000
ITEM: NUMBER OF ATOMS
9000
ITEM: BOX BOUNDS pp pp pp
3.6042321388874488e-01 1.6149576785892606e+01
3.6042321388874488e-01 1.6149576785892606e+01
3.6042321388874488e-01 1.6149576785892606e+01
ITEM: ATOMS id mol x y z c_Entp
23 1 15.6549 12.4396 13.7721 -5.34276
24 1 15.477 12.752 13.6205 -5.22939
25 1 15.5072 13.0489 13.865 -5.28297
8480 57 13.0884 6.91169 3.5822 -5.18016
3627 25 14.0809 4.07627 5.71906 -5.31672
22 1 15.6341 12.1034 13.5398 -5.31881
910 7 3.97866 3.01328 3.29989 -5.33983
914 7 3.27205 3.64439 2.63617 -5.47796
26 1 15.4223 13.3858 13.6799 -5.23424
7287 49 12.4818 6.60213 15.5026 -6.31903
1140 8 5.10194 15.8878 5.34214 -5.53525
7256 49 2.45207 2.80765 2.26731 -5.62742
3156 22 1.04563 3.441 7.22449 -5.90603
3155 22 0.997485 3.48885 6.84783 -5.71364
21 1 15.8086 11.8 13.735 -5.33275
7258 49 2.0689 3.31944 2.16765 -5.62975
7201 49 6.64633 0.985961 10.2913 -5.3988
7202 49 6.94581 1.23719 10.2912 -5.3682
3629 25 13.4409 4.16296 5.60518 -5.22274
7265 49 1.00339 5.08054 2.57902 -5.61033
748 5 14.6742 12.3688 3.68895 -6.06522
7263 49 1.3612 4.549 2.71479 -5.56068
7259 49 1.99971 3.69536 2.25432 -5.61999
7260 49 1.94441 3.74172 2.64463 -5.52941
7295 49 10.9956 5.04472 14.0891 -5.96029
7261 49 1.8353 4.0989 2.75995 -5.53952
7264 49 1.22354 4.78947 2.44829 -5.58301
7262 49 1.51532 4.20491 2.59129 -5.52419
6988 47 14.1357 6.12022 13.4848 -5.49556
3605 25 0.380192 0.970573 9.87939 -5.73312
3621 25 15.4068 3.57546 6.59612 -5.52988
7245 49 5.17097 0.849056 2.87 -5.54981
909 7 3.91721 2.63023 3.40089 -5.43484
907 7 3.99893 2.65068 4.02869 -5.3208
906 7 4.22669 2.5666 4.35352 -5.21452
908 7 4.14452 2.5114 3.69627 -5.39579
20 1 0.416527 11.8093 13.7526 -5.12675
3620 25 15.3118 3.53062 6.9664 -5.52091
3624 25 15.0552 4.2091 5.8731 -5.33704
3623 25 15.3052 3.93201 6.01917 -5.28536
905 7 4.07583 2.65296 4.70788 -5.20768
904 7 4.35855 2.62881 4.96389 -5.19992
2785 19 9.20537 6.53308 14.4712 -7.78633
3622 25 15.1958 3.83715 6.38225 -5.44247
7353 50 12.1155 13.0427 7.81324 -5.3241
7354 50 12.2067 12.7682 7.55679 -5.4057
3619 25 14.9762 3.34996 6.97901 -5.37782
3618 25 14.8963 3.18574 7.32528 -5.51087
7352 50 12.449 13.1969 7.96914 -5.26489
3617 25 14.5703 2.97681 7.38924 -5.48457
749 5 14.987 12.6174 3.6909 -5.99349
7267 49 0.666042 5.61175 2.50151 -5.44426
1141 8 4.88327 15.6049 5.17553 -5.55089
7266 49 0.881376 5.33753 2.31193 -5.64246
3609 25 15.4063 1.71111 9.13137 -5.7525
3608 25 15.4225 1.48961 9.44538 -5.68902
7427 50 10.8131 2.12681 8.0878 -5.63953
7269 49 0.446601 6.24164 2.45714 -5.38376
7243 49 5.05684 0.599184 3.41988 -5.46616
7268 49 0.626596 5.93379 2.28047 -5.35809
1142 8 4.51311 15.7113 5.17345 -5.42095
5550 37 3.91117 7.59727 13.8796 -5.13154
7355 50 11.8871 12.7316 7.32295 -5.43209
7244 49 5.20925 0.906993 3.25573 -5.46137
3607 25 15.7857 1.3566 9.52154 -5.7731
3610 25 15.0491 1.81065 9.00304 -5.68471
2789 19 10.0196 7.17521 15.2645 -8.01961
2855 20 10.7192 15.3664 6.93798 -5.48131
7424 50 9.84488 2.16473 8.26302 -5.54504
1332 9 13.428 8.62406 1.94683 -6.43063
6984 47 14.585 6.05541 14.6811 -5.28942
1331 9 13.5173 8.76096 2.29442 -6.30672
1139 8 5.48065 15.7859 5.30752 -5.63701
1136 8 6.40296 0.402365 5.16754 -5.48916
1137 8 6.14263 15.9146 5.22089 -5.58499
6983 47 14.5517 5.97233 15.0718 -5.38909
3153 22 0.680173 3.88318 6.39855 -5.42101
3152 22 0.401147 4.11263 6.30039 -5.42156
3154 22 0.705377 3.75959 6.77918 -5.6386
1134 8 7.00215 0.611991 5.15115 -5.39969
7420 50 8.8801 2.45319 7.66832 -5.58769
1138 8 5.78054 16.0449 5.25972 -5.62076
7423 50 9.50437 2.16139 8.0425 -5.61866
1135 8 6.77043 16.106 5.25653 -5.42681
7428 50 11.1258 2.00904 8.30342 -5.63444
7422 50 9.2007 2.33511 8.21524 -5.66977
3628 25 13.8013 4.32312 5.64755 -5.2591
7421 50 8.87453 2.2825 8.01716 -5.57328
7257 49 2.41569 3.18507 2.28945 -5.65114
1126 8 7.29735 1.89861 3.84242 -5.48354
7286 49 12.5786 6.76677 15.8515 -6.28499
1127 8 7.31705 2.23472 4.06226 -5.49946
7418 50 8.53502 2.71864 7.18148 -5.40867
1129 8 7.20073 1.90094 4.63751 -5.55364
1131 8 7.03719 1.63851 5.23361 -5.50794
1130 8 7.24679 1.91614 5.03723 -5.60795
1128 8 7.43381 2.1473 4.43016 -5.48096
1133 8 6.8926 0.958736 5.27828 -5.46935
1132 8 7.12726 1.25418 5.14777 -5.48238
750 5 15.1992 12.6008 4.02677 -5.7092
4567 31 12.6176 2.3902 3.30284 -5.28581
1125 8 7.23174 1.96009 3.46216 -5.5008
7242 49 5.12609 0.585605 3.80371 -5.42415
3625 25 14.7288 4.03066 5.79429 -5.3542
3626 25 14.4231 4.27552 5.74603 -5.32009
2788 19 9.99933 6.96241 14.938 -7.76139
2787 19 9.64287 6.94385 14.7699 -7.87476
2786 19 9.58014 6.62456 14.5386 -7.61511
7290 49 11.7895 6.0635 15.1143 -6.30268
7241 49 5.02509 0.902769 3.98612 -5.42746
3612 25 14.691 2.14381 8.58911 -5.60703
7288 49 12.1732 6.37791 15.4983 -6.35846
7293 49 11.3568 5.49797 14.4067 -5.95964
7294 49 11.1657 5.15552 14.4239 -6.01277
7289 49 12.1008 6.2928 15.1238 -6.32185
911 7 3.74956 3.1106 3.0118 -5.37789
912 7 3.84291 3.46488 2.87792 -5.44598
1330 9 13.7754 9.04577 2.26104 -6.2422
3614 25 14.3202 2.35984 8.09919 -5.39777
3616 25 14.5855 2.7792 7.71075 -5.51402
3613 25 14.6745 2.28634 8.22371 -5.57995
3611 25 15.0634 2.02137 8.68627 -5.70618
3615 25 14.2982 2.50309 7.74148 -5.3475
7292 49 11.4746 5.61028 14.7591 -6.06795
7291 49 11.6859 5.93954 14.7648 -6.24779
3151 22 0.483435 4.26688 5.94418 -5.35194
7419 50 8.53954 2.45203 7.47934 -5.503
7246 49 4.80673 0.869083 2.73785 -5.46821
7237 49 5.07146 1.86258 4.67469 -5.36387
6986 47 14.328 5.98693 14.0815 -5.54518
8547 57 13.364 5.41638 8.7656 -5.76939
770 6 11.0888 13.244 8.28777 -5.12978
8546 57 13.5937 5.44552 9.06683 -5.79524
784 6 7.74727 13.647 7.25201 -5.57689
8548 57 13.2289 5.74049 8.61323 -5.66387
8545 57 13.7026 5.08967 9.17971 -5.90446
2857 20 11.0434 15.1824 7.48779 -5.37783
8549 57 12.9613 5.7096 8.33511 -5.66256
769 6 11.3862 13.4477 8.12525 -5.26966
8550 57 12.9193 6.05208 8.14289 -5.68572
2858 20 11.1878 14.8555 7.62522 -5.35319
2860 20 10.7686 14.6507 8.07561 -5.3423
2625 18 3.83962 1.56838 6.28261 -5.43329
2626 18 3.49809 1.73681 6.19919 -5.32443
767 6 11.3381 13.9207 8.58243 -5.18314
2859 20 11.1259 14.7705 8.00419 -5.34739
1213 9 1.4159 2.69222 6.12857 -5.30584
7296 49 10.6946 4.79804 14.1658 -6.02576
205 2 5.68012 9.71186 1.041 -6.63329
2663 18 15.5955 6.57635 4.43448 -5.0436
2637 18 0.414725 1.4189 4.52487 -5.25812
197 2 3.5582 10.3366 0.854186 -5.10335
781 6 8.70589 13.4581 7.13755 -5.62916
2662 18 15.2621 6.6271 4.24615 -4.93587
1159 8 0.584825 3.12235 4.60719 -5.27301
1163 8 15.6581 4.01524 4.90529 -5.29806
1162 8 15.9104 3.72048 4.89444 -5.26091
1165 8 15.5573 4.59673 5.2055 -5.29122
1160 8 16.0058 3.0918 4.72875 -5.21402
1161 8 15.7958 3.4196 4.677 -5.2525
1164 8 15.8154 4.32919 5.08682 -5.27079
1146 8 3.73671 0.914017 4.86123 -5.24361
1166 8 15.7513 4.88692 5.38086 -5.24439
2627 18 3.28423 1.47639 5.98979 -5.36841
1167 8 15.9 5.14502 5.13857 -5.24602
1144 8 4.11275 0.427863 4.994 -5.30068
1147 8 3.64327 1.24741 4.70251 -5.18925
1145 8 4.11298 0.794129 4.86271 -5.37501
1150 8 3.16728 1.84824 4.80852 -5.16925
1215 9 0.913907 3.01484 5.86496 -5.30827
1143 8 4.46193 16.0684 5.02375 -5.33019
1148 8 3.75909 1.58112 4.86613 -5.20923
8544 57 13.9509 5.06513 9.46391 -6.13625
8543 57 14.0479 4.69917 9.57264 -6.19855
2047 14 1.97762 6.71359 12.4525 -5.4338
2623 18 4.40985 1.74268 6.44659 -5.47469
5381 36 15.2801 1.67679 12.6783 -5.70884
8542 57 14.2687 4.68752 9.90726 -6.36121
2621 18 4.82878 1.38963 6.76975 -5.36589
5380 36 15.1661 1.34313 12.5441 -5.60827
2624 18 4.04926 1.84822 6.45825 -5.40463
2622 18 4.46648 1.49912 6.75551 -5.39109
5377 36 15.1873 16.1231 12.6775 -5.32455
5378 36 15.0536 0.683543 12.5502 -5.37434
5379 36 15.1976 0.99698 12.7427 -5.4246
5376 36 15.0326 15.8175 12.4954 -5.21416
7297 49 10.6428 4.6078 13.8129 -5.94175
7299 49 10.236 4.18906 13.5079 -5.98037
7298 49 10.2959 4.40776 13.8368 -6.05143
204 2 5.43147 9.41003 1.02198 -6.36979
816 6 4.51888 2.22471 10.3135 -6.2161
1174 8 15.7939 6.82769 6.16608 -5.18103
2619 18 5.47513 1.55219 6.71857 -5.33877
2620 18 5.11165 1.63957 6.84429 -5.29867
2618 18 5.65856 1.27406 6.94771 -5.30244
1171 8 15.717 6.2363 5.34803 -5.26496
1169 8 16.0966 5.77055 5.06435 -5.11553
1168 8 15.9575 5.4912 5.28844 -5.18999
1170 8 16.0818 6.13008 5.23599 -5.21908
1172 8 15.7249 6.5564 5.58369 -5.24134
1173 8 15.805 6.49558 5.95565 -5.24609
203 2 5.11599 9.51254 1.22212 -6.03438
2613 18 6.24189 0.759095 8.12438 -5.26326
2615 18 5.83418 0.898019 7.6091 -5.23852
2050 14 1.51494 7.43686 12.9744 -5.17059
1175 8 15.9803 6.77955 6.50079 -5.18449
2658 18 14.3099 6.22231 4.20742 -4.92242
1176 8 15.9175 6.42913 6.66898 -5.42747
775 6 10.2457 12.592 7.28593 -5.69118
773 6 10.8178 12.6978 7.51654 -5.51839
776 6 9.84483 12.6286 7.29331 -5.75135
774 6 10.4384 12.7627 7.58755 -5.49893
772 6 11.0279 12.8417 7.819 -5.43907
771 6 10.8349 13.0757 8.05184 -5.25532
201 2 4.51807 9.82129 1.24177 -5.55749
206 2 6.01964 9.65316 0.846807 -7.29462
2051 14 1.15798 7.6043 12.9431 -5.17498
209 2 6.6762 10.2929 1.2096 -7.92173
2635 18 0.896678 1.4392 4.9136 -5.23931
212 2 7.21345 10.7884 1.93991 -8.24444
211 2 7.0028 10.7345 1.61227 -8.06683
202 2 4.85034 9.75146 1.03666 -6.01122
207 2 6.26018 9.95365 0.856206 -7.66269
1149 8 3.55678 1.8992 4.74765 -5.16739
208 2 6.46669 9.97728 1.19475 -7.62045
2632 18 1.75748 1.66546 5.36273 -5.25973
782 6 8.36498 13.6226 7.08621 -5.59747
2656 18 14.02 5.65495 4.00342 -4.90139
196 2 3.31901 10.5867 0.670797 -5.19323
777 6 9.75644 12.9771 7.12777 -5.6903
199 2 4.13234 9.98724 0.714322 -5.28891
1156 8 1.35046 2.49916 4.6099 -5.25459
1158 8 0.743262 2.75748 4.6319 -5.25809
824 6 3.38147 3.72174 8.47039 -6.52992
780 6 9.00516 13.634 6.9644 -5.53337
819 6 4.21283 2.90626 9.65762 -6.57116
2614 18 6.05844 0.635121 7.79863 -5.26673
2628 18 2.93498 1.6478 5.93671 -5.36069
2629 18 2.67357 1.46601 5.72328 -5.31305
2630 18 2.34021 1.67255 5.63538 -5.29069
2611 18 6.28204 16.0111 8.50847 -5.19165
821 6 3.88579 3.25093 9.22564 -6.59895
778 6 9.38254 13.1127 7.14269 -5.67146
2048 14 1.89293 6.93056 12.7543 -5.37116
1157 8 1.13203 2.82068 4.59524 -5.24914
822 6 3.66868 3.27929 8.8976 -6.61346
2856 20 11.0697 15.2644 7.10804 -5.39354
1216 9 0.548918 3.14802 5.89355 -5.33152
823 6 3.61549 3.66716 8.78818 -6.56625
2631 18 2.10168 1.47581 5.39467 -5.24683
785 6 7.43889 13.4904 7.42912 -5.53026
2636 18 0.566965 1.61919 4.83315 -5.1768
198 2 3.84407 10.2289 0.602043 -5.29827
2661 18 14.9686 6.54927 4.48897 -5.00594
2660 18 14.6393 6.75144 4.41358 -4.96412
8541 57 14.3205 4.324 10.077 -6.45844
8540 57 14.5795 4.37797 10.3722 -6.55846
8539 57 14.5722 4.07336 10.6153 -6.5313
8538 57 14.839 4.08229 10.9005 -6.48675
8537 57 14.8578 3.76186 11.1295 -6.50152
5375 36 14.8931 15.8831 12.1326 -5.33757
210 2 6.85808 10.3721 1.55533 -7.94595
5374 36 15.144 15.96 11.837 -5.30763
8533 57 15.592 3.234 12.1055 -6.3587
8535 57 15.2387 3.51428 11.602 -6.33055
8532 57 15.7318 3.28505 12.4691 -6.22023
8534 57 15.383 3.5338 11.9708 -6.27897
8536 57 15.0526 3.83331 11.4635 -6.44348
8531 57 15.8738 2.95197 12.6094 -6.23354
2659 18 14.4205 6.59562 4.1362 -4.89255
2634 18 1.13302 1.61638 5.15262 -5.18697
2616 18 6.02978 1.2217 7.49857 -5.26932
1217 9 16.079 2.86884 5.83134 -5.34251
1219 9 15.4521 2.67939 5.69963 -5.18911
1214 9 1.03363 2.76787 6.14055 -5.34611
2617 18 5.79925 1.43257 7.27371 -5.27562
2633 18 1.48393 1.46639 5.15193 -5.24009
1220 9 15.0895 2.82357 5.61379 -5.10645
634 5 1.74255 14.6907 13.6873 -5.09972
633 5 2.09759 14.7233 13.85 -5.15255
632 5 2.09214 14.8081 14.2269 -5.1915
1888 13 1.1197 12.6646 15.6283 -5.32148
636 5 1.46109 14.8179 13.1206 -5.26302
628 5 2.73372 15.0147 15.3518 -5.24112
898 6 14.4199 5.95605 6.94242 -5.36206
2650 18 14.1076 4.58231 4.69774 -5.11992
1008 7 1.1442 4.5983 13.7144 -5.89103
631 5 2.41751 14.9064 14.4217 -5.1263
630 5 2.4005 14.9422 14.8129 -5.17053
629 5 2.76716 14.9704 14.9595 -5.21107
635 5 1.79849 14.7677 13.3126 -5.19827
2645 18 14.5867 3.25054 4.59713 -5.15716
2646 18 14.75 3.45354 4.88836 -5.14429
830 6 2.59609 4.90805 7.14398 -5.98886
2638 18 15.8794 1.57823 4.39155 -5.25384
2644 18 14.5988 2.85227 4.6416 -5.09555
826 6 3.09531 4.1216 8.05263 -6.3624
1893 13 1.76696 12.4401 14.4348 -5.18705
2651 18 13.8806 4.48992 4.39619 -5.05336
836 6 1.66089 6.21903 6.08628 -5.46015
833 6 2.27334 5.73145 6.68278 -5.68066
835 6 1.94362 6.17141 6.35519 -5.52461
834 6 1.97208 5.80373 6.44163 -5.6541
832 6 2.28079 5.34271 6.75938 -5.85053
831 6 2.53474 5.28969 7.05043 -5.8703
2647 18 14.7526 3.84463 4.86044 -5.15315
2649 18 14.4505 4.39355 4.73434 -5.12721
1212 9 1.48517 2.33583 6.30237 -5.34958
2648 18 14.4097 4.02307 4.80112 -5.25334
640 5 0.507994 14.6599 12.4025 -5.28755
626 5 2.63365 14.7067 15.9259 -5.33759
2652 18 13.546 4.69873 4.38037 -4.99334
6484 44 3.55986 16.0173 15.1188 -5.22733
1204 9 2.77188 1.51561 8.15516 -6.00705
1203 9 3.06651 1.28624 8.22629 -5.99463
2655 18 13.8069 5.43923 3.73646 -5.04763
6483 44 3.42632 0.422577 15.432 -5.35533
1206 9 2.46319 1.89959 7.68889 -5.9413
1205 9 2.79655 1.7303 7.82139 -5.96921
1202 9 3.0255 1.09574 8.56605 -6.04697
2653 18 13.5998 5.05229 4.21806 -4.92985
2657 18 14.1278 6.01779 3.92764 -4.92325
2654 18 13.7702 5.06637 3.86739 -4.95817
994 7 14.7446 6.90383 10.4379 -5.88569
623 5 2.6095 15.1192 0.809387 -5.31096
1005 7 0.85899 5.09308 12.89 -5.97886
627 5 2.66916 14.6701 15.5409 -5.22801
1884 13 0.991236 13.6746 16.0742 -5.2709
625 5 2.94316 14.7936 0.364446 -5.39214
6485 44 3.77466 0.439496 14.9018 -5.28611
829 6 2.77054 4.87 7.48275 -6.10567
637 5 1.26419 14.4873 13.0631 -5.18003
2643 18 14.9513 2.67889 4.7231 -5.06987
2640 18 15.6111 2.16415 4.17327 -5.29049
2641 18 15.4155 2.28783 4.48734 -5.24033
2642 18 15.1005 2.50177 4.40624 -5.14556
860 6 3.42516 1.78888 10.5697 -6.5487
1208 9 2.22507 2.24607 7.14205 -5.85532
1207 9 2.52222 2.06246 7.33384 -5.87667
1892 13 1.54532 12.1362 14.5198 -5.18394
638 5 0.898315 14.529 12.9215 -5.21419
8686 58 9.17058 14.1026 14.4384 -8.01802
996 7 15.0765 6.57266 10.8622 -6.03791
622 5 2.55571 15.1903 1.18295 -5.24575
2639 18 15.926 1.92723 4.22654 -5.23951
4640 31 10.4882 6.81942 2.08837 -6.91081
1211 9 1.85715 2.22818 6.34327 -5.4601
8688 58 9.56123 14.4239 14.8343 -7.71813
8687 58 9.18547 14.3945 14.7199 -7.75404
8685 58 8.79569 14.0317 14.3234 -7.95676
1210 9 2.0352 2.50766 6.57386 -5.59406
1209 9 2.33333 2.35695 6.77882 -5.65297
655 5 2.28973 11.6351 11.078 -5.266
897 6 14.7892 5.87694 7.05975 -5.48687
896 6 14.8334 5.54326 7.25763 -5.64225
1004 7 0.520909 5.18791 12.692 -5.9
1003 7 0.573486 5.43829 12.3984 -5.88238
1006 7 0.823851 4.91295 13.2354 -5.89976
995 7 15.068 6.71497 10.4984 -5.91974
1890 13 1.29166 12.4011 15.0531 -5.25852
1891 13 1.48856 12.1005 14.8936 -5.14273
1887 13 1.19471 12.6875 16.004 -5.36667
1885 13 0.916823 13.2895 16.0244 -5.44378
1007 7 1.16712 4.78776 13.3743 -6.00649
1002 7 16.0332 5.5383 12.2284 -5.89529
1001 7 16.0605 5.76914 11.9188 -5.93144
899 6 14.3832 6.27675 6.74427 -5.2576
900 6 14.5934 6.26255 6.40687 -5.25954
5311 36 3.02548 4.21443 12.5757 -6.29616
5310 36 3.07471 4.06088 12.929 -6.18615
5309 36 3.41228 3.88398 12.988 -6.18008
657 5 2.70721 11.1794 10.8801 -5.13176
1886 13 1.21391 13.0556 16.1095 -5.33723
639 5 0.879306 14.6506 12.5587 -5.29154
1883 13 0.667432 13.8797 16.0225 -5.363
654 5 1.99028 11.8599 10.9525 -5.30418
1889 13 1.28474 12.3743 15.4515 -5.30232
842 6 0.799923 5.07132 6.56427 -5.61941
839 6 0.728813 5.88258 6.00369 -5.37674
841 6 0.837267 5.456 6.48804 -5.66647
656 5 2.42863 11.4096 10.7873 -5.24928
840 6 0.715724 5.51624 6.10896 -5.39212
999 7 15.7753 6.11263 11.4109 -6.00146
998 7 15.442 6.27165 11.321 -6.0867
1000 7 15.7297 5.91449 11.7426 -5.97106
997 7 15.4373 6.4751 10.9895 -6.16419
5305 36 4.36652 3.60408 13.4028 -5.78488
850 6 2.0209 3.70967 8.24213 -6.64923
837 6 1.31873 6.06878 6.16647 -5.47597
838 6 1.05953 6.02833 5.87966 -5.28551
843 6 0.968072 4.98559 6.88977 -5.78734
1201 9 3.33441 0.86083 8.61767 -5.87826
894 6 15.0857 5.2345 7.75465 -5.984
3220 22 15.6249 3.56709 3.75839 -5.23646
893 6 15.3756 5.20243 8.0213 -6.07444
6486 44 3.86551 16.0295 14.587 -5.20267
890 6 15.667 4.55758 8.69622 -6.47139
892 6 15.3219 4.96242 8.32124 -6.25258
891 6 15.6233 4.92392 8.55957 -6.3465
895 6 15.1494 5.4941 7.46313 -5.77924
5308 36 3.37965 3.623 13.27 -6.07776
5338 36 13.484 8.60072 8.55266 -5.35438
5337 36 13.8396 8.75397 8.57862 -5.20263
5301 36 5.60591 3.84747 13.724 -5.44499
845 6 1.54838 4.95321 7.22354 -6.02711
846 6 1.55988 4.57408 7.32252 -6.13365
844 6 1.3488 5.0545 6.90093 -5.79591
848 6 1.72467 4.1632 7.83456 -6.34479
5300 36 5.68732 3.49172 13.6039 -5.45811
849 6 2.015 4.06832 8.09524 -6.59209
847 6 1.77681 4.50503 7.63443 -6.37766
5302 36 5.28832 3.98235 13.5373 -5.46488
5299 36 5.96678 3.30589 13.7891 -5.39046
5306 36 4.01231 3.71653 13.3101 -5.94018
5304 36 4.66344 3.87441 13.3865 -5.67497
5307 36 3.72462 3.44571 13.3637 -5.93434
5303 36 4.99949 3.71353 13.4884 -5.57092
5339 36 13.2416 8.76878 8.29407 -5.28025
8690 58 9.97506 14.8456 15.1715 -7.22224
658 5 3.01338 11.3949 10.9978 -5.18772
4638 31 10.0706 6.48443 1.71569 -6.81795
4639 31 10.2782 6.48893 2.0362 -6.63335
4641 31 10.6486 6.86247 2.43312 -6.65251
825 6 3.34339 4.09917 8.35367 -6.43883
5321 36 1.38388 5.96905 10.354 -6.35615
5322 36 1.12202 5.95197 10.0498 -6.40328
6583 44 15.522 5.14739 13.6602 -5.4866
6584 44 15.6584 5.10931 14.0226 -5.473
5323 36 1.05631 6.31145 9.89192 -6.15
5324 36 0.859313 6.28624 9.54286 -6.205
1881 13 0.417772 14.4673 15.909 -5.37015
1876 13 0.548209 15.8462 1.00972 -5.21139
1882 13 0.724802 14.2586 16.0373 -5.26784
5319 36 1.71754 5.66104 10.8033 -6.37592
5320 36 1.46555 5.61655 10.5027 -6.56917
1877 13 0.421521 15.4863 0.94205 -5.23704
1878 13 0.490572 15.3577 0.582409 -5.23528
5316 36 2.01139 4.98447 11.4865 -6.69102
6582 44 15.325 5.48413 13.5962 -5.48936
1879 13 0.407789 14.9757 0.518742 -5.3234
1880 13 0.500785 14.8455 15.9455 -5.32444
5312 36 2.65621 4.33506 12.4659 -6.41794
685 5 8.06097 16.1365 15.4648 -5.93362
684 5 8.078 15.789 15.2835 -6.21396
691 5 8.40745 1.97097 15.9512 -5.62964
689 5 8.52187 1.35759 0.401066 -5.67397
688 5 8.56479 0.996443 16.0618 -5.70508
692 5 8.02765 2.03998 15.9861 -5.59359
6403 43 7.47622 0.996373 0.506948 -5.64462
686 5 8.36034 0.459565 15.6962 -6.00326
6576 44 14.5874 5.95502 12.0577 -5.95976
693 5 7.83221 2.13509 15.6696 -5.51614
687 5 8.30984 0.839965 15.8005 -5.80155
5336 36 14.0529 8.59457 8.86862 -5.20632
8642 58 5.61401 11.8226 5.04202 -5.12644
690 5 8.47669 1.59507 15.8831 -5.5947
8651 58 4.02016 10.3182 6.4839 -4.86411
8650 58 4.35364 10.462 6.33247 -4.84054
5326 36 0.619424 6.84752 9.52719 -5.88613
5325 36 0.851065 6.61023 9.34071 -5.98711
5332 36 15.2253 8.44626 9.40906 -5.0562
5331 36 15.372 8.13367 9.24231 -5.1358
8649 58 4.34575 10.5152 5.94198 -4.76657
8648 58 4.62969 10.7402 5.78317 -4.7787
8652 58 4.09075 10.2259 6.86303 -4.96277
8647 58 4.60857 10.7738 5.39509 -4.83481
5333 36 14.9975 8.64569 9.16502 -5.06107
5327 36 0.492516 7.15828 9.32775 -5.67599
1981 14 12.8423 10.2038 4.75883 -6.6413
5330 36 15.6187 7.89752 9.44677 -5.27928
5328 36 16.0318 7.40702 9.51069 -5.53496
5334 36 14.6712 8.44183 9.08836 -5.07466
8645 58 4.84963 11.196 4.95433 -4.99126
8483 57 13.3398 7.87537 3.71106 -5.32749
887 6 0.465507 4.20544 9.40915 -6.9192
8646 58 4.92282 10.9624 5.25223 -4.98236
5329 36 15.841 7.65076 9.26592 -5.43157
3276 22 3.10512 13.5182 12.2899 -5.17253
991 7 14.5875 7.73627 9.90106 -5.32632
3603 25 0.658484 0.418055 9.71025 -5.61592
694 5 7.44643 2.16294 15.708 -5.56059
987 7 13.4725 7.80482 9.18348 -5.43242
988 7 13.7132 7.99585 9.43025 -5.31454
990 7 14.26 7.93961 9.81061 -5.33063
989 7 14.0037 7.7674 9.55673 -5.39286
8653 58 3.78012 10.0558 7.05097 -5.00405
8654 58 3.81653 9.95653 7.43287 -5.00088
3291 22 2.43074 16.0988 9.20692 -5.86534
992 7 14.5087 7.3863 10.0819 -5.59548
8656 58 4.28888 9.73889 7.85917 -5.12762
8655 58 4.15682 9.76542 7.49523 -5.04547
8657 58 4.02007 9.54838 8.10154 -5.14936
5317 36 2.05953 5.2552 11.2131 -6.54113
6577 44 14.7616 5.62188 12.1655 -6.0058
1875 13 0.455 15.9861 1.35333 -5.04382
1874 13 0.56105 0.567202 1.36005 -5.10202
6579 44 15.0547 5.26129 12.6297 -5.9165
6581 44 15.2534 5.52366 13.2104 -5.64984
18 1 0.99085 11.5494 13.9403 -4.98908
1975 14 11.6042 9.35197 3.52479 -7.72851
1870 13 0.512932 1.70408 1.95546 -5.20192
1871 13 0.57801 1.32337 2.00808 -5.10446
17 1 1.18188 11.6797 13.6216 -5.11307
19 1 0.602222 11.5011 13.9036 -5.0651
6580 44 15.1001 5.20872 13.0235 -5.7845
889 6 15.9391 4.55312 8.97738 -6.59589
6578 44 14.8326 5.57849 12.5439 -5.93117
1872 13 0.569831 1.11574 1.65898 -5.16177
16 1 1.5749 11.6482 13.6642 -5.1018
15 1 1.76249 11.7832 13.365 -5.22715
1978 14 12.4139 9.68813 4.02335 -6.9624
5315 36 2.36183 4.86617 11.6519 -6.64458
8482 57 13.2838 7.48882 3.79932 -5.21804
1873 13 0.551151 0.733864 1.70221 -4.98081
3279 22 2.93107 14.0295 11.6644 -5.30837
3282 22 2.75025 14.7907 11.01 -5.56908
3281 22 2.66762 14.4631 11.1999 -5.55119
3283 22 2.44934 15.0194 10.9118 -5.68209
3284 22 2.57049 15.2588 10.6222 -5.68108
3277 22 3.24674 13.5234 11.9264 -5.15203
3280 22 2.97085 14.3531 11.4257 -5.41514
3601 25 1.02582 15.7042 9.48637 -5.60836
8643 58 5.42582 11.4686 5.05751 -5.12048
888 6 15.9244 4.2064 9.18385 -6.69817
3278 22 3.27818 13.8917 11.8191 -5.25093
1974 14 11.5402 9.12237 3.21966 -7.91725
1976 14 11.9965 9.40131 3.61156 -7.3432
1982 14 13.2026 10.2828 4.8814 -6.32244
1977 14 12.0318 9.65166 3.90912 -7.17675
3292 22 2.19772 0.598594 9.10374 -5.85058
8644 58 5.05457 11.5177 4.95637 -5.01474
6566 44 12.3516 7.3676 10.3018 -5.56812
901 7 4.45397 2.01868 5.54151 -5.27855
993 7 14.7878 7.10869 10.1184 -5.75856
11 1 2.56455 12.4502 13.3997 -5.15653
13 1 2.28603 11.9654 13.0758 -5.21027
12 1 2.62157 12.1444 13.1533 -5.21749
10 1 2.84371 12.6756 13.5259 -5.10585
9 1 2.73337 12.9027 13.8314 -5.1497
14 1 2.14492 11.8357 13.4191 -5.1721
1869 13 0.451524 1.90042 2.29257 -5.32136
683 5 7.73685 15.7346 15.1025 -6.16216
902 7 4.5153 2.40105 5.57545 -5.31142
6565 44 12.4932 7.70759 10.458 -5.49965
1983 14 13.2109 10.4426 5.24272 -6.27352
8661 58 4.27568 10.1396 9.23515 -5.16257
1979 14 12.4393 9.93589 4.32084 -6.91438
8659 58 4.10335 9.81598 8.68208 -5.10803
8658 58 4.13137 9.47665 8.47093 -5.08663
8660 58 4.2322 9.78791 9.05965 -5.06595
1 1 3.47036 13.9535 15.6472 -5.27168
3288 22 2.83339 15.3632 9.30433 -5.42605
1980 14 12.8167 10.0215 4.40931 -6.77768
3 1 3.00093 13.8062 15.1753 -5.25474
3289 22 2.46106 15.4298 9.22178 -5.47192
3286 22 2.72907 15.2906 9.97406 -5.58311
3287 22 2.87853 15.1437 9.62436 -5.43405
3285 22 2.71744 15.0768 10.3092 -5.50988
5335 36 14.4477 8.60509 8.80586 -5.09229
747 5 14.4807 12.3745 3.35568 -6.42597
5314 36 2.30881 4.64674 11.9605 -6.67121
6586 44 15.9776 4.81468 14.5132 -5.47069
6402 43 7.43263 1.26344 0.786662 -5.68176
3293 22 1.8849 0.473732 8.87873 -5.7555
903 7 4.26732 2.5965 5.33889 -5.25279
3290 22 2.35276 15.7605 9.02483 -5.62715
5313 36 2.62095 4.46525 12.0998 -6.54969
653 5 1.84704 12.1081 11.228 -5.43419
5318 36 1.72709 5.33898 11.0193 -6.57471
986 7 13.3041 7.5235 9.39329 -5.42975
5 1 3.08845 13.9344 14.5302 -5.16984
2 1 3.28743 14.0555 15.3183 -5.24374
682 5 7.66061 15.3735 14.9816 -6.42399
5582 38 2.63147 4.07223 1.00627 -5.41914
5580 38 2.28725 4.383 0.551203 -5.43796
5581 38 2.3117 4.28969 0.927984 -5.46243
5686 38 15.5438 3.59629 13.9673 -5.67486
5577 38 1.60033 4.83447 15.7861 -5.33921
2798 19 11.9812 8.7774 0.956224 -8.32036
5576 38 1.29641 4.82742 16.014 -5.4513
5575 38 1.00205 5.09522 15.9546 -5.51213
5584 38 2.92533 3.67633 1.4458 -5.46073
5579 38 1.97336 4.59939 0.471658 -5.39057
2795 19 11.235 8.32111 0.47139 -8.60674
2797 19 11.6433 8.74915 0.756592 -8.68115
5571 38 16.0838 5.39119 1.08803 -5.47126
5573 38 0.872776 5.14803 0.790246 -5.60531
5574 38 0.743279 5.07958 0.443357 -5.53395
5572 38 0.589642 5.12783 1.08382 -5.55464
6987 47 14.0458 5.95037 13.8241 -5.42907
5583 38 2.61024 3.90796 1.36273 -5.5313
6903 47 5.41065 16.1017 1.3176 -5.38312
6962 47 15.3881 8.57426 14.1329 -5.19057
2801 19 12.4665 9.45465 1.49523 -8.24721
6906 47 4.62496 15.463 1.29348 -5.38002
7307 49 8.17881 3.65127 13.0774 -5.70147
2079 14 15.104 14.9495 14.1465 -5.24316
2080 14 15.2177 15.1695 14.4558 -5.16014
7315 49 8.72261 5.92595 12.6508 -6.98291
4688 32 14.6167 11.8583 4.62393 -5.77485
6904 47 5.11033 15.8768 1.20222 -5.43926
4685 32 15.2128 11.1265 4.94449 -5.09042
6901 47 5.27021 0.966121 1.36845 -5.40172
5578 38 1.87078 4.57332 15.8915 -5.38277
6972 47 1.23844 8.12146 15.5642 -5.14471
2802 19 12.811 9.45707 1.68649 -7.74069
5679 38 14.7547 3.44096 15.5549 -5.64792
5680 38 15.0711 3.1963 15.503 -5.62548
2799 19 12.0317 9.11499 1.1431 -8.60118
4686 32 14.9628 11.3244 4.70702 -5.37375
5681 38 15.3072 3.30915 15.2075 -5.57332
5682 38 15.6115 3.08741 15.137 -5.50826
5683 38 15.854 3.22201 14.8603 -5.51862
7343 49 14.1543 11.3034 1.78548 -7.23048
6974 47 1.00013 7.57266 15.256 -5.21365
7342 49 13.9905 10.961 1.69452 -7.24608
7341 49 13.6663 10.9762 1.49744 -7.68563
7340 49 13.5236 10.6164 1.44833 -7.56464
7339 49 13.2185 10.6532 1.20163 -8.07216
7337 49 12.8268 10.2548 0.803693 -8.5426
7336 49 12.806 9.87771 0.687215 -8.37413
7338 49 13.0833 10.296 1.10219 -8.08354
4684 32 15.2741 10.756 4.88828 -5.01935
6971 47 1.14996 8.48821 15.649 -5.13227
6973 47 0.947917 7.94689 15.3685 -5.15751
2803 19 12.8784 9.8175 1.79867 -7.89221
7272 49 15.6322 6.97393 2.15255 -5.28797
2081 14 15.2729 15.5561 14.4011 -5.05527
2083 14 15.6775 16.0086 14.09 -5.17254
2078 14 14.8778 14.6494 14.2603 -5.32975
2082 14 15.5575 15.629 14.1355 -5.12099
2076 14 14.4889 14.1524 13.9735 -5.52532
7332 49 12.0011 9.13998 15.7856 -8.59144
7330 49 11.5236 8.80476 15.4585 -8.85386
7333 49 12.1369 9.50755 15.8382 -8.84879
7331 49 11.7277 9.12446 15.493 -8.9316
7335 49 12.5331 9.85469 0.409693 -8.78156
7334 49 12.4298 9.49123 16.0996 -8.46224
7329 49 11.3423 8.72485 15.1347 -8.88451
2077 14 14.7506 14.438 13.9411 -5.26364
7328 49 11.0857 8.4232 15.1399 -8.63928
6905 47 4.8907 15.6934 1.46631 -5.38175
4689 32 14.5146 12.2008 4.77854 -5.82965
7271 49 15.8971 6.804 2.38547 -5.23668
2790 19 10.3954 7.25309 15.3508 -7.941
5684 38 15.678 3.27191 14.5183 -5.62946
2794 19 11.2167 7.987 16.0668 -8.1609
2796 19 11.6052 8.38396 0.604109 -8.23495
2793 19 10.8507 7.88818 15.9818 -8.22957
2791 19 10.4375 7.50873 15.6191 -8.06878
2792 19 10.8217 7.59936 15.7316 -7.90848
5568 38 15.5359 5.80212 1.82154 -5.49252
5569 38 15.6773 5.72624 1.46546 -5.48071
5570 38 15.9589 5.4675 1.45513 -5.46462
5566 38 14.869 5.87851 1.75312 -5.48622
5567 38 15.2228 6.03395 1.85178 -5.42894
5385 36 14.927 2.27462 11.708 -6.00685
5387 36 14.6253 2.52937 11.1753 -5.98533
7308 49 7.97496 3.91718 12.8606 -5.60764
5386 36 14.7727 2.59577 11.5272 -6.08434
2072 14 14.4043 13.2419 13.2375 -5.28595
2075 14 14.4522 13.9517 13.6404 -5.43447
6976 47 0.582749 7.06738 15.1394 -5.17561
6975 47 0.635361 7.43429 15.224 -5.2275
2074 14 14.1748 13.6961 13.6509 -5.56343
7309 49 8.20563 4.2194 12.7735 -5.66686
7310 49 8.00461 4.53515 12.6556 -5.77346
6977 47 15.9962 6.94396 15.1268 -5.24573
6980 47 15.336 6.51267 15.3823 -5.28666
6978 47 15.7983 7.00363 15.4547 -5.23739
6979 47 15.4106 6.89182 15.4089 -5.27275
6981 47 14.9778 6.46712 15.2214 -5.2347
6982 47 14.87 6.1013 15.2709 -5.41277
2069 14 14.3646 12.3389 12.8228 -5.35374
2073 14 14.1143 13.4857 13.3289 -5.3714
2071 14 14.2653 12.9226 13.0686 -5.33549
2070 14 14.5127 12.6225 13.0353 -5.28667
7311 49 8.2571 4.81587 12.579 -5.96925
7312 49 8.08428 5.13542 12.4291 -6.19552
7314 49 8.52901 5.58307 12.6987 -6.58329
6968 47 0.735365 9.22473 15.0882 -5.1866
6967 47 0.510319 8.99581 14.869 -5.20423
6963 47 15.2497 8.77981 14.4296 -5.37663
6902 47 5.36152 0.631006 1.55392 -5.35515
5565 38 14.5803 6.13408 1.73561 -5.32764
4687 32 14.9266 11.7069 4.80903 -5.42638
6970 47 1.05624 8.69497 15.317 -5.19974
6969 47 0.893148 9.04949 15.3989 -5.20298
6965 47 15.8332 9.07537 14.3908 -5.15555
6966 47 0.361746 9.20445 14.582 -5.1982
6964 47 15.5289 8.97702 14.617 -5.31106
7313 49 8.33091 5.45295 12.3849 -6.42968
7344 49 14.4387 11.2721 2.04582 -6.94662
2800 19 12.3676 9.11449 1.34865 -8.23039
7270 49 16.0382 6.47785 2.22585 -5.27735
7275 49 14.8793 7.19768 2.03012 -5.22
7273 49 15.459 7.26135 2.35335 -5.13297
7274 49 15.1725 7.43817 2.13431 -5.18073
1329 9 13.8549 9.21312 2.61209 -6.17609
7345 49 14.6441 11.6003 2.07312 -6.88473
3298 22 1.27295 1.56841 7.82527 -5.74622
3299 22 1.34925 1.89063 7.60893 -5.7729
6985 47 14.2713 5.93741 14.4717 -5.35735
913 7 3.65281 3.58336 2.55471 -5.46092
1226 9 13.9142 3.48003 6.67765 -5.44928
1225 9 13.7221 3.19268 6.47459 -5.26829
1224 9 13.9079 3.07649 6.15326 -5.32963
7303 49 9.3099 3.29219 12.9994 -5.9575
6510 44 16.1015 2.15387 9.96509 -6.33227
6504 44 1.16173 1.2608 11.3666 -6.10452
3150 21 4.63535 0.834102 15.6777 -5.47979
1223 9 14.2825 2.98702 6.21561 -5.28187
153 2 2.45821 8.76686 8.10709 -4.96109
7302 49 9.50222 3.50254 13.2718 -5.88143
1240 9 14.7888 2.04196 10.3303 -5.93422
6473 44 1.7016 1.4912 1.75048 -5.32786
152 2 2.75505 8.75053 7.86336 -4.9094
6527 44 13.9369 5.37932 6.05548 -5.25183
1227 9 13.74 3.56961 7.00852 -5.46954
155 2 1.83718 8.72577 8.18824 -4.94882
7301 49 9.81589 3.73158 13.178 -5.93932
1229 9 13.634 3.95211 7.48781 -5.59749
157 2 1.38103 8.48809 7.79566 -4.97106
6525 44 14.2987 5.0163 6.49218 -5.3858
7304 49 8.99726 3.08357 13.1153 -5.9422
7305 49 8.70315 3.31269 13.2212 -5.83739
154 2 2.12181 8.72809 7.92268 -4.84076
151 2 3.08983 8.86449 8.03205 -5.05267
4201 29 5.7619 6.16035 12.2894 -5.51649
1296 9 1.9117 3.99863 6.69263 -5.76576
1295 9 2.20094 3.98234 6.95311 -5.95383
1328 9 14.1697 9.4625 2.59095 -6.07572
6523 44 14.596 4.6396 6.94738 -5.46031
1292 9 2.53954 3.29515 7.56918 -6.19372
1327 9 14.283 9.58853 2.95042 -6.05919
5383 36 15.3517 2.11994 12.2294 -5.95772
1177 8 0.362274 6.34644 6.96935 -5.60526
1326 9 14.6308 9.77312 2.95948 -5.89243
1297 9 1.99329 4.27371 6.42171 -5.58795
1236 9 14.296 2.74936 9.34691 -5.82147
1293 9 2.55373 3.61111 7.3289 -6.14237
1294 9 2.21039 3.65708 7.15529 -6.15794
6526 44 13.9452 5.14305 6.36021 -5.33748